                         Program Version 6.0.1  -  RELEASE   -
|  1> ! STEOM-DLPNO-CCSD NOCOSX def2-SVP/C STO-3G NormalPNO TightSCF
|  2> %Pal NProcs 4 end
|  3> %MaxCore 2500
|  4> %SCF
|  5>     AutoTRAH    True
|  6>     CNVDamp     False
|  7>     CNVZerner   False
|  8>     end
|  9> %mdci
| 10>     MaxIter     200
| 11>     NRoots      2
| 12>     DoTriplet   false
| 13>     STEOMSOC    false
| 14>     DoDbfilter  false
| 15>     DoSTEOMNatTransOrb  True
| 16>     DoStoreSTEOM        True
| 17>     end
| 18> *xyz 0 1
| 19> C            -1.41525000     0.23022000     0.00000000
| 20> C             1.41525000    -0.23022000     0.00000000
| 21> C            -0.49513000     1.31446000     0.00000000
| 22> C             0.49513000    -1.31446000     0.00000000
| 23> C             0.88941000     1.09095000     0.00000000
| 24> C            -0.88941000    -1.09095000     0.00000000
| 25> H            -0.87955000     2.34373000     0.00000000
| 26> H             0.87955000    -2.34373000     0.00000000
| 27> H             1.57790000     1.94501000     0.00000000
| 28> H            -1.57790000    -1.94501000     0.00000000
| 29> C             2.88458000    -0.52109000     0.00000000
| 30> C            -2.88458000     0.52109000     0.00000000
| 31> H             3.14034000    -1.59196000     0.00000000
| 32> H            -3.14034000     1.59196000     0.00000000
| 33> C             3.88004000     0.38225000     0.00000000
| 34> C            -3.88004000    -0.38225000     0.00000000
| 35> H             3.69468000     1.46244000     0.00000000
| 36> H            -3.69468000    -1.46244000     0.00000000
| 37> H             4.93165000     0.07110000     0.00000000
| 38> H            -4.93165000    -0.07110000     0.00000000
| 39> *
| 40>
| 41>                          ****END OF INPUT****

CARTESIAN COORDINATES (ANGSTROEM)
---------------------------------
  C     -1.415250    0.230220    0.000000
  C      1.415250   -0.230220    0.000000
  C     -0.495130    1.314460    0.000000
  C      0.495130   -1.314460    0.000000
  C      0.889410    1.090950    0.000000
  C     -0.889410   -1.090950    0.000000
  H     -0.879550    2.343730    0.000000
  H      0.879550   -2.343730    0.000000
  H      1.577900    1.945010    0.000000
  H     -1.577900   -1.945010    0.000000
  C      2.884580   -0.521090    0.000000
  C     -2.884580    0.521090    0.000000
  H      3.140340   -1.591960    0.000000
  H     -3.140340    1.591960    0.000000
  C      3.880040    0.382250    0.000000
  C     -3.880040   -0.382250    0.000000
  H      3.694680    1.462440    0.000000
  H     -3.694680   -1.462440    0.000000
  H      4.931650    0.071100    0.000000
  H     -4.931650   -0.071100    0.000000

 Total Charge           Charge          ....    0
 Multiplicity           Mult            ....    1
 Number of Electrons    NEL             ....   70
 Basis Dimension        Dim             ....   60

ORBITAL ENERGIES
----------------

  NO   OCC          E(Eh)            E(eV)
   0   2.0000     -11.040586      -300.4296
   1   2.0000     -11.040523      -300.4279
   2   2.0000     -11.031589      -300.1848
   3   2.0000     -11.031589      -300.1848
   4   2.0000     -11.028953      -300.1131
   5   2.0000     -11.028823      -300.1095
   6   2.0000     -11.028609      -300.1037
   7   2.0000     -11.028586      -300.1031
   8   2.0000     -11.017480      -299.8009
   9   2.0000     -11.017480      -299.8009
  10   2.0000      -1.090298       -29.6685
  11   2.0000      -1.020253       -27.7625
  12   2.0000      -0.974925       -26.5291
  13   2.0000      -0.950302       -25.8590
  14   2.0000      -0.909634       -24.7524
  15   2.0000      -0.799882       -21.7659
  16   2.0000      -0.762826       -20.7575
  17   2.0000      -0.727630       -19.7998
  18   2.0000      -0.696776       -18.9602
  19   2.0000      -0.628052       -17.0902
  20   2.0000      -0.605677       -16.4813
  21   2.0000      -0.572941       -15.5905
  22   2.0000      -0.553603       -15.0643
  23   2.0000      -0.553165       -15.0524
  24   2.0000      -0.525359       -14.2958
  25   2.0000      -0.496697       -13.5158
  26   2.0000      -0.492526       -13.4023
  27   2.0000      -0.463730       -12.6187
  28   2.0000      -0.446430       -12.1480
  29   2.0000      -0.421653       -11.4738
  30   2.0000      -0.415621       -11.3096
  31   2.0000      -0.376963       -10.2577
  32   2.0000      -0.315126        -8.5750
  33   2.0000      -0.278364        -7.5747
  34   2.0000      -0.222189        -6.0461
  35   0.0000       0.198994         5.4149
  36   0.0000       0.268516         7.3067
  37   0.0000       0.308826         8.4036
  38   0.0000       0.397078        10.8050
  39   0.0000       0.521759        14.1978

E(0)                                       ...   -379.768963134
E(0)                                       ...   -379.768963134
E(CORR)(strong-pairs)                      ...     -0.725340349
E(CORR)(weak-pairs)                        ...     -0.004407298
E(CORR)(corrected)                         ...     -0.729747647
E(TOT)                                     ...   -380.498710781

MULLIKEN ATOMIC CHARGES
-----------------------
   0 C :   -0.000023
   1 C :    0.000043
   2 C :   -0.056383
   3 C :   -0.058488
   4 C :   -0.057256
   5 C :   -0.059458
   6 H :    0.058044
   7 H :    0.057644
   8 H :    0.059981
   9 H :    0.059589
  10 C :   -0.055011
  11 C :   -0.055051
  12 H :    0.056687
  13 H :    0.056577
  14 C :   -0.119773
  15 C :   -0.120018
  16 H :    0.056809
  17 H :    0.056907
  18 H :    0.059638
  19 H :    0.059541
Sum of atomic charges:    0.0000000

LOEWDIN ATOMIC CHARGES
----------------------
   0 C :    0.006896
   1 C :    0.006794
   2 C :   -0.028667
   3 C :   -0.031030
   4 C :   -0.029165
   5 C :   -0.031868
   6 H :    0.027853
   7 H :    0.027544
   8 H :    0.029823
   9 H :    0.029557
  10 C :   -0.023125
  11 C :   -0.023199
  12 H :    0.026633
  13 H :    0.026544
  14 C :   -0.067353
  15 C :   -0.067640
  16 H :    0.029230
  17 H :    0.029321
  18 H :    0.030962
  19 H :    0.030889

  Mayer bond orders larger than 0.100000
B(  0-C ,  2-C ) :   1.2740 B(  0-C ,  5-C ) :   1.2691 B(  0-C , 11-C ) :   0.9782
B(  1-C ,  3-C ) :   1.2684 B(  1-C ,  4-C ) :   1.2752 B(  1-C , 10-C ) :   0.9777
B(  2-C ,  4-C ) :   1.3241 B(  2-C ,  6-H ) :   0.9242 B(  3-C ,  5-C ) :   1.3315
B(  3-C ,  7-H ) :   0.9241 B(  4-C ,  8-H ) :   0.9229 B(  5-C ,  9-H ) :   0.9230
B( 10-C , 12-H ) :   0.9215 B( 10-C , 14-C ) :   1.6977 B( 11-C , 13-H ) :   0.9215
B( 11-C , 15-C ) :   1.6965 B( 14-C , 16-H ) :   0.9286 B( 14-C , 18-H ) :   0.9306
B( 15-C , 17-H ) :   0.9287 B( 15-C , 19-H ) :   0.9306

----------------------------------------------------------------------------------------------------
                     ABSORPTION SPECTRUM VIA TRANSITION ELECTRIC DIPOLE MOMENTS
----------------------------------------------------------------------------------------------------
     Transition      Energy     Energy  Wavelength fosc(D2)      D2        DX        DY        DZ
                      (eV)      (cm-1)    (nm)                 (au**2)    (au)      (au)      (au)
----------------------------------------------------------------------------------------------------
  0-1A  ->  1-1A    4.616389   37233.7   268.6   0.000595105   0.00526  -0.03647  -0.05415  -0.00004
  0-1A  ->  2-1A    7.384637   59561.1   167.9   1.080889118   5.97439   2.44559   0.04319   0.00095
*The positivity of oscillator strengths is not guaranteed in non-Hermitian theories.

FINAL SINGLE POINT ENERGY      -380.329061588675

DIPOLE MOMENT
-------------

Method             : MDCI(SD)
Type of density    : Electron Density
Multiplicity       :   1
Level              : Linearized density
Irrep              :   0
Energy             :     0.0000000000000000 Eh
Relativity type    :
Basis              : AO
                                X                 Y                 Z
Electronic contribution:      0.005717886       0.013967529       0.000000000
Nuclear contribution   :      0.000000000       0.000000000       0.000000000
                        -----------------------------------------
Total Dipole Moment    :      0.005717886       0.013967529       0.000000000
                        -----------------------------------------
Magnitude (a.u.)       :      0.015092584
Magnitude (Debye)      :      0.038362299

Rotational constants in cm-1:             0.153923             0.022856             0.019901
Rotational constants in MHz :          4614.502149           685.206697           596.615374

                             ****ORCA TERMINATED NORMALLY****
TOTAL RUN TIME: 0 days 0 hours 1 minutes 32 seconds 884 msec
