                         Program Version 6.0.1  -  RELEASE   -
|  1> ! NMR B3LYP sto-3g autoaux noautostart
|  2>
|  3> * xyz 0 1
|  4>  C       -1.4152533224   0.2302217854   0.0000000000
|  5>  C        1.4152533224  -0.2302217854   0.0000000000
|  6>  C       -0.4951331558   1.3144608674   0.0000000000
|  7>  C        0.4951331558  -1.3144608674   0.0000000000
|  8>  C        0.8894090436   1.0909493743   0.0000000000
|  9>  C       -0.8894090436  -1.0909493743   0.0000000000
| 10>  H       -0.8795511985   2.3437343748   0.0000000000
| 11>  H        0.8795511985  -2.3437343748   0.0000000000
| 12>  H        1.5779041557   1.9450061275   0.0000000000
| 13>  H       -1.5779041557  -1.9450061275   0.0000000000
| 14>  C        2.8845844962  -0.5210893778   0.0000000000
| 15>  C       -2.8845844962   0.5210893778   0.0000000000
| 16>  H        3.1403356810  -1.5919605685   0.0000000000
| 17>  H       -3.1403356810   1.5919605685   0.0000000000
| 18>  C        3.8800428103   0.3822535424   0.0000000000
| 19>  C       -3.8800428103  -0.3822535424   0.0000000000
| 20>  H        3.6946765858   1.4624389570   0.0000000000
| 21>  H       -3.6946765858  -1.4624389570   0.0000000000
| 22>  H        4.9316453546   0.0711049543   0.0000000000
| 23>  H       -4.9316453546  -0.0711049543   0.0000000000
| 24> *
| 25>
| 26>                          ****END OF INPUT****

CARTESIAN COORDINATES (ANGSTROEM)
---------------------------------
  C     -1.415253    0.230222    0.000000
  C      1.415253   -0.230222    0.000000
  C     -0.495133    1.314461    0.000000
  C      0.495133   -1.314461    0.000000
  C      0.889409    1.090949    0.000000
  C     -0.889409   -1.090949    0.000000
  H     -0.879551    2.343734    0.000000
  H      0.879551   -2.343734    0.000000
  H      1.577904    1.945006    0.000000
  H     -1.577904   -1.945006    0.000000
  C      2.884584   -0.521089    0.000000
  C     -2.884584    0.521089    0.000000
  H      3.140336   -1.591961    0.000000
  H     -3.140336    1.591961    0.000000
  C      3.880043    0.382254    0.000000
  C     -3.880043   -0.382254    0.000000
  H      3.694677    1.462439    0.000000
  H     -3.694677   -1.462439    0.000000
  H      4.931645    0.071105    0.000000
  H     -4.931645   -0.071105    0.000000

 Total Charge           Charge          ....    0
 Multiplicity           Mult            ....    1
 Number of Electrons    NEL             ....   70
 Basis Dimension        Dim             ....   60

ORBITAL ENERGIES
----------------

  NO   OCC          E(Eh)            E(eV)
   0   2.0000     -10.016671      -272.5675
   1   2.0000     -10.016622      -272.5661
   2   2.0000     -10.004448      -272.2349
   3   2.0000     -10.004447      -272.2348
   4   2.0000     -10.002835      -272.1910
   5   2.0000     -10.002832      -272.1909
   6   2.0000     -10.002207      -272.1739
   7   2.0000     -10.002063      -272.1700
   8   2.0000      -9.987365      -271.7700
   9   2.0000      -9.987364      -271.7700
  10   2.0000      -0.806056       -21.9339
  11   2.0000      -0.750528       -20.4229
  12   2.0000      -0.714253       -19.4358
  13   2.0000      -0.696481       -18.9522
  14   2.0000      -0.663798       -18.0628
  15   2.0000      -0.585066       -15.9205
  16   2.0000      -0.555754       -15.1228
  17   2.0000      -0.527946       -14.3661
  18   2.0000      -0.506386       -13.7795
  19   2.0000      -0.454018       -12.3544
  20   2.0000      -0.435707       -11.8562
  21   2.0000      -0.407671       -11.0933
  22   2.0000      -0.394241       -10.7278
  23   2.0000      -0.392345       -10.6763
  24   2.0000      -0.371157       -10.0997
  25   2.0000      -0.347667        -9.4605
  26   2.0000      -0.343614        -9.3502
  27   2.0000      -0.321266        -8.7421
  28   2.0000      -0.307941        -8.3795
  29   2.0000      -0.290141        -7.8951
  30   2.0000      -0.284634        -7.7453
  31   2.0000      -0.260149        -7.0790
  32   2.0000      -0.208932        -5.6853
  33   2.0000      -0.191712        -5.2168
  34   2.0000      -0.149555        -4.0696
  35   0.0000       0.041395         1.1264
  36   0.0000       0.093926         2.5559
  37   0.0000       0.114786         3.1235
  38   0.0000       0.186038         5.0623
  39   0.0000       0.276261         7.5175

MULLIKEN ATOMIC CHARGES
-----------------------
   0 C :   -0.004199
   1 C :   -0.004199
   2 C :   -0.076665
   3 C :   -0.076665
   4 C :   -0.077032
   5 C :   -0.077032
   6 H :    0.077864
   7 H :    0.077864
   8 H :    0.079208
   9 H :    0.079208
  10 C :   -0.076405
  11 C :   -0.076405
  12 H :    0.076615
  13 H :    0.076615
  14 C :   -0.154478
  15 C :   -0.154478
  16 H :    0.075955
  17 H :    0.075955
  18 H :    0.079137
  19 H :    0.079137
Sum of atomic charges:    0.0000000

LOEWDIN ATOMIC CHARGES
----------------------
   0 C :    0.003890
   1 C :    0.003890
   2 C :   -0.043916
   3 C :   -0.043916
   4 C :   -0.044167
   5 C :   -0.044167
   6 H :    0.042146
   7 H :    0.042146
   8 H :    0.043690
   9 H :    0.043690
  10 C :   -0.039036
  11 C :   -0.039036
  12 H :    0.041006
  13 H :    0.041006
  14 C :   -0.091471
  15 C :   -0.091471
  16 H :    0.042930
  17 H :    0.042930
  18 H :    0.044929
  19 H :    0.044929

  Mayer bond orders larger than 0.100000
B(  0-C ,  2-C ) :   1.3634 B(  0-C ,  5-C ) :   1.3655 B(  0-C , 11-C ) :   1.0665
B(  1-C ,  3-C ) :   1.3634 B(  1-C ,  4-C ) :   1.3655 B(  1-C , 10-C ) :   1.0665
B(  2-C ,  4-C ) :   1.4651 B(  2-C ,  6-H ) :   0.9617 B(  3-C ,  5-C ) :   1.4651
B(  3-C ,  7-H ) :   0.9617 B(  4-C ,  5-C ) :   0.1021 B(  4-C ,  8-H ) :   0.9598
B(  5-C ,  9-H ) :   0.9598 B( 10-C , 12-H ) :   0.9595 B( 10-C , 14-C ) :   1.9014
B( 11-C , 13-H ) :   0.9595 B( 11-C , 15-C ) :   1.9014 B( 14-C , 16-H ) :   0.9667
B( 14-C , 18-H ) :   0.9695 B( 15-C , 17-H ) :   0.9667 B( 15-C , 19-H ) :   0.9695

FINAL SINGLE POINT ENERGY      -382.056221599749

DIPOLE MOMENT
-------------

Method             : SCF
Type of density    : Electron Density
Multiplicity       :   1
Irrep              :   0
Energy             :  -382.0562215997492785 Eh
Relativity type    :
Basis              : AO
                                X                 Y                 Z
Electronic contribution:     -0.000000006      -0.000000030      -0.000000003
Nuclear contribution   :      0.000000000       0.000000000       0.000000000
                        -----------------------------------------
Total Dipole Moment    :     -0.000000006      -0.000000030      -0.000000003
                        -----------------------------------------
Magnitude (a.u.)       :      0.000000031
Magnitude (Debye)      :      0.000000079

Rotational constants in cm-1:             0.153923             0.022856             0.019901
Rotational constants in MHz :          4614.497946           685.205544           596.614430

CHEMICAL SHIELDING SUMMARY (ppm)
--------------------------------

  Nucleus  Element    Isotropic     Anisotropy
  -------  -------  ------------   ------------
      0       C          114.398        147.504
      1       C          114.398        147.504
      2       C          118.053        132.469
      3       C          118.053        132.469
      4       C          121.529        142.344
      5       C          121.529        142.344
      6       H           25.574          4.984
      7       H           25.574          4.984
      8       H           25.154          5.785
      9       H           25.154          5.785
     10       C          116.428        117.535
     11       C          116.428        117.535
     12       H           26.068          5.534
     13       H           26.068          5.534
     14       C          128.635        126.163
     15       C          128.635        126.163
     16       H           26.795          6.550
     17       H           26.795          6.550
     18       H           27.108          5.222
     19       H           27.108          5.222

                             ****ORCA TERMINATED NORMALLY****
TOTAL RUN TIME: 0 days 0 hours 0 minutes 27 seconds 477 msec
