                         Program Version 5.0.3 -  RELEASE  -
|  1> ! B3LYP NOCOSX NORI STO-3G TightSCF SP
|  2> %Pal NProcs 2 end
|  3> %MaxCore 500
|  4> %SCF
|  5>     AutoTRAH    True
|  6>     CNVDamp     False
|  7>     CNVZerner   False
|  8>     end
|  9> *xyz 0 1
| 10> C            -1.41525300     0.23022200     0.00000000
| 11> C             1.41525300    -0.23022200     0.00000000
| 12> C            -0.49513300     1.31446100     0.00000000
| 13> C             0.49513300    -1.31446100     0.00000000
| 14> C             0.88940900     1.09094900     0.00000000
| 15> C            -0.88940900    -1.09094900     0.00000000
| 16> H            -0.87955100     2.34373400     0.00000000
| 17> H             0.87955100    -2.34373400     0.00000000
| 18> H             1.57790400     1.94500600     0.00000000
| 19> H            -1.57790400    -1.94500600     0.00000000
| 20> C             2.88458400    -0.52108900     0.00000000
| 21> C            -2.88458400     0.52108900     0.00000000
| 22> H             3.14033600    -1.59196100     0.00000000
| 23> H            -3.14033600     1.59196100     0.00000000
| 24> C             3.88004300     0.38225400     0.00000000
| 25> C            -3.88004300    -0.38225400     0.00000000
| 26> H             3.69467700     1.46243900     0.00000000
| 27> H            -3.69467700    -1.46243900     0.00000000
| 28> H             4.93164500     0.07110500     0.00000000
| 29> H            -4.93164500    -0.07110500     0.00000000
| 30> *
| 31>
| 32>                          ****END OF INPUT****

CARTESIAN COORDINATES (ANGSTROEM)
---------------------------------
  C     -1.415253    0.230222    0.000000
  C      1.415253   -0.230222    0.000000
  C     -0.495133    1.314461    0.000000
  C      0.495133   -1.314461    0.000000
  C      0.889409    1.090949    0.000000
  C     -0.889409   -1.090949    0.000000
  H     -0.879551    2.343734    0.000000
  H      0.879551   -2.343734    0.000000
  H      1.577904    1.945006    0.000000
  H     -1.577904   -1.945006    0.000000
  C      2.884584   -0.521089    0.000000
  C     -2.884584    0.521089    0.000000
  H      3.140336   -1.591961    0.000000
  H     -3.140336    1.591961    0.000000
  C      3.880043    0.382254    0.000000
  C     -3.880043   -0.382254    0.000000
  H      3.694677    1.462439    0.000000
  H     -3.694677   -1.462439    0.000000
  H      4.931645    0.071105    0.000000
  H     -4.931645   -0.071105    0.000000

 Total Charge           Charge          ....    0
 Multiplicity           Mult            ....    1
 Number of Electrons    NEL             ....   70
 Basis Dimension        Dim             ....   60

ORBITAL ENERGIES
----------------

  NO   OCC          E(Eh)            E(eV)
   0   2.0000     -10.016214      -272.5551
   1   2.0000     -10.016166      -272.5537
   2   2.0000     -10.003938      -272.2210
   3   2.0000     -10.003937      -272.2210
   4   2.0000     -10.002888      -272.1924
   5   2.0000     -10.002886      -272.1924
   6   2.0000     -10.002241      -272.1748
   7   2.0000     -10.002098      -272.1709
   8   2.0000      -9.988175      -271.7921
   9   2.0000      -9.988175      -271.7921
  10   2.0000      -0.805831       -21.9278
  11   2.0000      -0.750298       -20.4166
  12   2.0000      -0.714222       -19.4350
  13   2.0000      -0.696284       -18.9469
  14   2.0000      -0.663668       -18.0593
  15   2.0000      -0.584871       -15.9151
  16   2.0000      -0.555510       -15.1162
  17   2.0000      -0.527786       -14.3618
  18   2.0000      -0.506302       -13.7772
  19   2.0000      -0.453967       -12.3531
  20   2.0000      -0.435562       -11.8522
  21   2.0000      -0.407374       -11.0852
  22   2.0000      -0.394048       -10.7226
  23   2.0000      -0.392297       -10.6750
  24   2.0000      -0.370790       -10.0897
  25   2.0000      -0.347276        -9.4499
  26   2.0000      -0.343370        -9.3436
  27   2.0000      -0.320878        -8.7315
  28   2.0000      -0.307418        -8.3653
  29   2.0000      -0.289322        -7.8728
  30   2.0000      -0.283842        -7.7237
  31   2.0000      -0.259854        -7.0710
  32   2.0000      -0.208726        -5.6797
  33   2.0000      -0.191559        -5.2126
  34   2.0000      -0.149378        -4.0648
  35   0.0000       0.041142         1.1195
  36   0.0000       0.093754         2.5512
  37   0.0000       0.114365         3.1120
  38   0.0000       0.185851         5.0573
  39   0.0000       0.275961         7.5093

MULLIKEN ATOMIC CHARGES
-----------------------
   0 C :   -0.004350
   1 C :   -0.004350
   2 C :   -0.076574
   3 C :   -0.076574
   4 C :   -0.076965
   5 C :   -0.076965
   6 H :    0.077830
   7 H :    0.077830
   8 H :    0.079167
   9 H :    0.079167
  10 C :   -0.076222
  11 C :   -0.076222
  12 H :    0.076536
  13 H :    0.076536
  14 C :   -0.154541
  15 C :   -0.154541
  16 H :    0.075973
  17 H :    0.075973
  18 H :    0.079144
  19 H :    0.079144
Sum of atomic charges:    0.0000000

LOEWDIN ATOMIC CHARGES
----------------------
   0 C :    0.003771
   1 C :    0.003771
   2 C :   -0.043822
   3 C :   -0.043822
   4 C :   -0.044099
   5 C :   -0.044099
   6 H :    0.042102
   7 H :    0.042102
   8 H :    0.043642
   9 H :    0.043642
  10 C :   -0.038889
  11 C :   -0.038889
  12 H :    0.040930
  13 H :    0.040930
  14 C :   -0.091503
  15 C :   -0.091503
  16 H :    0.042936
  17 H :    0.042936
  18 H :    0.044932
  19 H :    0.044932

  Mayer bond orders larger than 0.100000
B(  0-C ,  2-C ) :   1.3631 B(  0-C ,  5-C ) :   1.3652 B(  0-C , 11-C ) :   1.0664
B(  1-C ,  3-C ) :   1.3631 B(  1-C ,  4-C ) :   1.3652 B(  1-C , 10-C ) :   1.0664
B(  2-C ,  4-C ) :   1.4652 B(  2-C ,  6-H ) :   0.9614 B(  3-C ,  5-C ) :   1.4652
B(  3-C ,  7-H ) :   0.9614 B(  4-C ,  5-C ) :   0.1022 B(  4-C ,  8-H ) :   0.9595
B(  5-C ,  9-H ) :   0.9595 B( 10-C , 12-H ) :   0.9592 B( 10-C , 14-C ) :   1.9013
B( 11-C , 13-H ) :   0.9592 B( 11-C , 15-C ) :   1.9013 B( 14-C , 16-H ) :   0.9664
B( 14-C , 18-H ) :   0.9693 B( 15-C , 17-H ) :   0.9664 B( 15-C , 19-H ) :   0.9693

FINAL SINGLE POINT ENERGY      -382.050692200796

DIPOLE MOMENT
-------------
                                X             Y             Z
Electronic contribution:      0.00000       0.00000       0.00000
Nuclear contribution   :      0.00000       0.00000       0.00000
                        -----------------------------------------
Total Dipole Moment    :      0.00000       0.00000       0.00000
                        -----------------------------------------
Magnitude (a.u.)       :      0.00000
Magnitude (Debye)      :      0.00000

Rotational constants in cm-1:     0.153923     0.022856     0.019901
Rotational constants in MHz :  4614.498453   685.205599   596.614480

                             ****ORCA TERMINATED NORMALLY****
TOTAL RUN TIME: 0 days 0 hours 0 minutes 55 seconds 336 msec
