                         Program Version 6.0.1  -  RELEASE   -
|  1> !  b3lyp sto-3g usesym freq
|  2>
|  3> * xyz 0 1
|  4>  C       -1.4152533224   0.2302217854   0.0000000000
|  5>  C        1.4152533224  -0.2302217854   0.0000000000
|  6>  C       -0.4951331558   1.3144608674   0.0000000000
|  7>  C        0.4951331558  -1.3144608674   0.0000000000
|  8>  C        0.8894090436   1.0909493743   0.0000000000
|  9>  C       -0.8894090436  -1.0909493743   0.0000000000
| 10>  H       -0.8795511985   2.3437343748   0.0000000000
| 11>  H        0.8795511985  -2.3437343748   0.0000000000
| 12>  H        1.5779041557   1.9450061275   0.0000000000
| 13>  H       -1.5779041557  -1.9450061275   0.0000000000
| 14>  C        2.8845844962  -0.5210893778   0.0000000000
| 15>  C       -2.8845844962   0.5210893778   0.0000000000
| 16>  H        3.1403356810  -1.5919605685   0.0000000000
| 17>  H       -3.1403356810   1.5919605685   0.0000000000
| 18>  C        3.8800428103   0.3822535424   0.0000000000
| 19>  C       -3.8800428103  -0.3822535424   0.0000000000
| 20>  H        3.6946765858   1.4624389570   0.0000000000
| 21>  H       -3.6946765858  -1.4624389570   0.0000000000
| 22>  H        4.9316453546   0.0711049543   0.0000000000
| 23>  H       -4.9316453546  -0.0711049543   0.0000000000
| 24> *
| 25> %pal
| 26>  nprocs 4
| 27> end
| 28> %MaxCore 700
| 29>
| 30>                          ****END OF INPUT****

CARTESIAN COORDINATES (ANGSTROEM)
---------------------------------
  C     -1.415253    0.230222    0.000000
  C      1.415253   -0.230222    0.000000
  C     -0.495133    1.314461    0.000000
  C      0.495133   -1.314461    0.000000
  C      0.889409    1.090949    0.000000
  C     -0.889409   -1.090949    0.000000
  H     -0.879551    2.343734    0.000000
  H      0.879551   -2.343734    0.000000
  H      1.577904    1.945006    0.000000
  H     -1.577904   -1.945006    0.000000
  C      2.884584   -0.521089    0.000000
  C     -2.884584    0.521089    0.000000
  H      3.140336   -1.591961    0.000000
  H     -3.140336    1.591961    0.000000
  C      3.880043    0.382254    0.000000
  C     -3.880043   -0.382254    0.000000
  H      3.694677    1.462439    0.000000
  H     -3.694677   -1.462439    0.000000
  H      4.931645    0.071105    0.000000
  H     -4.931645   -0.071105    0.000000

 Total Charge           Charge          ....    0
 Multiplicity           Mult            ....    1
 Number of Electrons    NEL             ....   70
 Basis Dimension        Dim             ....   60

ORBITAL ENERGIES
----------------

  NO   OCC          E(Eh)            E(eV)    Irrep
   0   2.0000     -10.017320      -272.5851    1-Bu
   1   2.0000     -10.017271      -272.5838    1-Ag
   2   2.0000     -10.005038      -272.2509    2-Bu
   3   2.0000     -10.005037      -272.2509    2-Ag
   4   2.0000     -10.003437      -272.2074    3-Ag
   5   2.0000     -10.003434      -272.2073    3-Bu
   6   2.0000     -10.002808      -272.1903    4-Bu
   7   2.0000     -10.002665      -272.1863    4-Ag
   8   2.0000      -9.987939      -271.7856    5-Bu
   9   2.0000      -9.987939      -271.7856    5-Ag
  10   2.0000      -0.806050       -21.9337    6-Ag
  11   2.0000      -0.750468       -20.4213    6-Bu
  12   2.0000      -0.714219       -19.4349    7-Ag
  13   2.0000      -0.696393       -18.9498    7-Bu
  14   2.0000      -0.663706       -18.0604    8-Bu
  15   2.0000      -0.584985       -15.9182    8-Ag
  16   2.0000      -0.555658       -15.1202    9-Ag
  17   2.0000      -0.527826       -14.3629    9-Bu
  18   2.0000      -0.506378       -13.7792   10-Ag
  19   2.0000      -0.454036       -12.3549   11-Ag
  20   2.0000      -0.435635       -11.8542   10-Bu
  21   2.0000      -0.407444       -11.0871   11-Bu
  22   2.0000      -0.394113       -10.7244   12-Bu
  23   2.0000      -0.392220       -10.6729   12-Ag
  24   2.0000      -0.370889       -10.0924   13-Bu
  25   2.0000      -0.347381        -9.4527   14-Bu
  26   2.0000      -0.343355        -9.3432   13-Ag
  27   2.0000      -0.321074        -8.7369    1-Au
  28   2.0000      -0.307512        -8.3678   15-Bu
  29   2.0000      -0.289514        -7.8781   14-Ag
  30   2.0000      -0.284028        -7.7288   15-Ag
  31   2.0000      -0.260029        -7.0758    1-Bg
  32   2.0000      -0.208725        -5.6797    2-Au
  33   2.0000      -0.191653        -5.2151    2-Bg
  34   2.0000      -0.149434        -4.0663    3-Bg
  35   0.0000       0.041101         1.1184    3-Au
  36   0.0000       0.093672         2.5489    4-Au
  37   0.0000       0.114388         3.1126    4-Bg
  38   0.0000       0.185692         5.0529    5-Au
  39   0.0000       0.275789         7.5046    5-Bg

MULLIKEN ATOMIC CHARGES
-----------------------
   0 C :   -0.004143
   1 C :   -0.004143
   2 C :   -0.076580
   3 C :   -0.076580
   4 C :   -0.076951
   5 C :   -0.076951
   6 H :    0.077764
   7 H :    0.077764
   8 H :    0.079094
   9 H :    0.079094
  10 C :   -0.076313
  11 C :   -0.076313
  12 H :    0.076502
  13 H :    0.076502
  14 C :   -0.154359
  15 C :   -0.154359
  16 H :    0.075911
  17 H :    0.075911
  18 H :    0.079074
  19 H :    0.079074
Sum of atomic charges:   -0.0000000

LOEWDIN ATOMIC CHARGES
----------------------
   0 C :    0.003937
   1 C :    0.003937
   2 C :   -0.043833
   3 C :   -0.043833
   4 C :   -0.044089
   5 C :   -0.044089
   6 H :    0.042053
   7 H :    0.042053
   8 H :    0.043587
   9 H :    0.043587
  10 C :   -0.038964
  11 C :   -0.038964
  12 H :    0.040905
  13 H :    0.040905
  14 C :   -0.091364
  15 C :   -0.091364
  16 H :    0.042890
  17 H :    0.042890
  18 H :    0.044879
  19 H :    0.044879

  Mayer bond orders larger than 0.100000
B(  0-C ,  2-C ) :   1.3631 B(  0-C ,  5-C ) :   1.3652 B(  0-C , 11-C ) :   1.0664
B(  1-C ,  3-C ) :   1.3631 B(  1-C ,  4-C ) :   1.3652 B(  1-C , 10-C ) :   1.0664
B(  2-C ,  4-C ) :   1.4652 B(  2-C ,  6-H ) :   0.9614 B(  3-C ,  5-C ) :   1.4652
B(  3-C ,  7-H ) :   0.9614 B(  4-C ,  5-C ) :   0.1022 B(  4-C ,  8-H ) :   0.9595
B(  5-C ,  9-H ) :   0.9595 B( 10-C , 12-H ) :   0.9592 B( 10-C , 14-C ) :   1.9013
B( 11-C , 13-H ) :   0.9592 B( 11-C , 15-C ) :   1.9013 B( 14-C , 16-H ) :   0.9664
B( 14-C , 18-H ) :   0.9693 B( 15-C , 17-H ) :   0.9664 B( 15-C , 19-H ) :   0.9693

FINAL SINGLE POINT ENERGY      -382.055107107616

DIPOLE MOMENT
-------------

Method             : SCF
Type of density    : Electron Density
Multiplicity       :   1
Irrep              :   0
Energy             :  -382.0551071076164931 Eh
Relativity type    :
Basis              : AO
                                X                 Y                 Z
Electronic contribution:     -0.000000000      -0.000000000      -0.000000000
Nuclear contribution   :      0.000000000       0.000000000       0.000000000
                        -----------------------------------------
Total Dipole Moment    :     -0.000000000      -0.000000000      -0.000000000
                        -----------------------------------------
Magnitude (a.u.)       :      0.000000000
Magnitude (Debye)      :      0.000000000

VIBRATIONAL FREQUENCIES
-----------------------

Scaling factor for frequencies =  1.000000000  (already applied!)
Point group:  C2h
                             Irrep
     0:       0.00 cm**-1    1-Au
     1:       0.00 cm**-1    1-Bu
     2:       0.00 cm**-1    2-Bu
     3:       0.00 cm**-1    1-Ag
     4:       0.00 cm**-1    1-Bg
     5:       0.00 cm**-1    2-Bg
     6:      43.87 cm**-1    2-Au
     7:      77.06 cm**-1    3-Bg
     8:     150.56 cm**-1    3-Au
     9:     179.77 cm**-1    3-Bu
    10:     264.46 cm**-1    2-Ag
    11:     301.31 cm**-1    4-Bg
    12:     407.44 cm**-1    3-Ag
    13:     423.74 cm**-1    4-Au
    14:     468.31 cm**-1    5-Au
    15:     487.36 cm**-1    4-Bu
    16:     578.32 cm**-1    4-Ag
    17:     657.07 cm**-1    5-Bg
    18:     673.01 cm**-1    5-Ag
    19:     706.63 cm**-1    6-Au
    20:     734.72 cm**-1    5-Bu
    21:     809.53 cm**-1    6-Bg
    22:     862.07 cm**-1    6-Ag
    23:     892.41 cm**-1    7-Bg
    24:     895.13 cm**-1    7-Au
    25:     980.40 cm**-1    8-Bg
    26:     980.51 cm**-1    8-Au
    27:    1016.69 cm**-1    9-Bg
    28:    1035.16 cm**-1    9-Au
    29:    1073.26 cm**-1    6-Bu
    30:    1101.76 cm**-1    7-Bu
    31:    1105.96 cm**-1   10-Au
    32:    1106.10 cm**-1   10-Bg
    33:    1110.38 cm**-1    7-Ag
    34:    1203.09 cm**-1    8-Bu
    35:    1260.24 cm**-1    8-Ag
    36:    1283.93 cm**-1    9-Bu
    37:    1295.50 cm**-1    9-Ag
    38:    1350.10 cm**-1   10-Bu
    39:    1397.84 cm**-1   10-Ag
    40:    1421.10 cm**-1   11-Bu
    41:    1426.37 cm**-1   11-Ag
    42:    1513.92 cm**-1   12-Bu
    43:    1565.40 cm**-1   12-Ag
    44:    1574.98 cm**-1   13-Bu
    45:    1638.89 cm**-1   14-Bu
    46:    1690.33 cm**-1   13-Ag
    47:    1737.76 cm**-1   14-Ag
    48:    1814.11 cm**-1   15-Ag
    49:    1815.09 cm**-1   15-Bu
    50:    3394.10 cm**-1   16-Bu
    51:    3394.71 cm**-1   16-Ag
    52:    3432.10 cm**-1   17-Bu
    53:    3432.10 cm**-1   17-Ag
    54:    3447.28 cm**-1   18-Bu
    55:    3450.84 cm**-1   18-Ag
    56:    3470.83 cm**-1   19-Bu
    57:    3474.00 cm**-1   19-Ag
    58:    3546.40 cm**-1   20-Bu
    59:    3546.41 cm**-1   20-Ag

IR SPECTRUM
-----------

 Mode   freq       eps      Int      T**2         TX        TY        TZ
       cm**-1   L/(mol*cm) km/mol    a.u.
----------------------------------------------------------------------------
  6:     43.87   0.000005    0.03  0.000037  ( 0.000000 -0.000000 -0.006051)
  7:     77.06   0.000000    0.00  0.000000  ( 0.000000 -0.000000  0.000000)
  8:    150.56   0.000071    0.36  0.000148  (-0.000000 -0.000000  0.012154)
  9:    179.77   0.000052    0.26  0.000091  (-0.008826 -0.003620  0.000000)
 10:    264.46   0.000000    0.00  0.000000  (-0.000000  0.000000  0.000000)
 11:    301.31   0.000000    0.00  0.000000  ( 0.000000 -0.000000  0.000000)
 12:    407.44   0.000000    0.00  0.000000  (-0.000000  0.000000 -0.000000)
 13:    423.74   0.000021    0.11  0.000016  (-0.000000 -0.000000  0.003940)
 14:    468.31   0.001209    6.11  0.000805  ( 0.000000 -0.000000  0.028380)
 15:    487.36   0.000387    1.95  0.000248  ( 0.015648  0.001635 -0.000000)
 16:    578.32   0.000000    0.00  0.000000  ( 0.000000  0.000000  0.000000)
 17:    657.07   0.000000    0.00  0.000000  (-0.000000 -0.000000 -0.000000)
 18:    673.01   0.000000    0.00  0.000000  (-0.000000 -0.000000  0.000000)
 19:    706.63   0.000100    0.51  0.000044  ( 0.000000 -0.000000  0.006646)
 20:    734.72   0.000828    4.18  0.000352  (-0.018684 -0.001553 -0.000000)
 21:    809.53   0.000000    0.00  0.000000  ( 0.000000  0.000000  0.000000)
 22:    862.07   0.000000    0.00  0.000000  (-0.000000 -0.000000 -0.000000)
 23:    892.41   0.000000    0.00  0.000000  (-0.000000 -0.000000  0.000000)
 24:    895.13   0.005315   26.86  0.001853  ( 0.000000  0.000000  0.043047)
 25:    980.40   0.000000    0.00  0.000000  (-0.000000 -0.000000 -0.000000)
 26:    980.51   0.007280   36.79  0.002317  ( 0.000000  0.000000 -0.048134)
 27:   1016.69   0.000000    0.00  0.000000  (-0.000000  0.000000 -0.000000)
 28:   1035.16   0.000001    0.01  0.000000  (-0.000000  0.000000  0.000621)
 29:   1073.26   0.000104    0.53  0.000030  (-0.005462 -0.000718  0.000000)
 30:   1101.76   0.001737    8.78  0.000492  ( 0.022121 -0.001650  0.000000)
 31:   1105.96   0.002681   13.55  0.000756  ( 0.000000 -0.000000 -0.027504)
 32:   1106.10   0.000000    0.00  0.000000  ( 0.000000 -0.000000 -0.000000)
 33:   1110.38   0.000000    0.00  0.000000  (-0.000000 -0.000000 -0.000000)
 34:   1203.09   0.000295    1.49  0.000077  ( 0.007765  0.004039  0.000000)
 35:   1260.24   0.000000    0.00  0.000000  ( 0.000000  0.000000  0.000000)
 36:   1283.93   0.000012    0.06  0.000003  ( 0.001423 -0.000947  0.000000)
 37:   1295.50   0.000000    0.00  0.000000  ( 0.000000 -0.000000  0.000000)
 38:   1350.10   0.001747    8.83  0.000404  ( 0.019994 -0.002026 -0.000000)
 39:   1397.84   0.000000    0.00  0.000000  ( 0.000000  0.000000  0.000000)
 40:   1421.10   0.001703    8.60  0.000374  (-0.018967 -0.003759  0.000000)
 41:   1426.37   0.000000    0.00  0.000000  (-0.000000  0.000000  0.000000)
 42:   1513.92   0.003688   18.64  0.000760  (-0.007013  0.026665  0.000000)
 43:   1565.40   0.000000    0.00  0.000000  (-0.000000 -0.000000  0.000000)
 44:   1574.98   0.000128    0.65  0.000025  ( 0.003686 -0.003424  0.000000)
 45:   1638.89   0.003023   15.28  0.000576  (-0.023937 -0.001618  0.000000)
 46:   1690.33   0.000000    0.00  0.000000  ( 0.000000  0.000000 -0.000000)
 47:   1737.76   0.000000    0.00  0.000000  ( 0.000000 -0.000000 -0.000000)
 48:   1814.11   0.000000    0.00  0.000000  ( 0.000000  0.000000 -0.000000)
 49:   1815.09   0.000292    1.48  0.000050  (-0.000381  0.007075  0.000000)
 50:   3394.10   0.019215   97.10  0.001767  (-0.040873 -0.009802 -0.000000)
 51:   3394.71   0.000000    0.00  0.000000  (-0.000000 -0.000000  0.000000)
 52:   3432.10   0.000739    3.73  0.000067  (-0.008070 -0.001432  0.000000)
 53:   3432.10   0.000000    0.00  0.000000  (-0.000000 -0.000000  0.000000)
 54:   3447.28   0.000247    1.25  0.000022  (-0.000614  0.004685 -0.000000)
 55:   3450.84   0.000000    0.00  0.000000  ( 0.000000  0.000000 -0.000000)
 56:   3470.83   0.001112    5.62  0.000100  ( 0.002852  0.009583  0.000000)
 57:   3474.00   0.000000    0.00  0.000000  ( 0.000000  0.000000 -0.000000)
 58:   3546.40   0.000009    0.04  0.000001  ( 0.000859  0.000153 -0.000000)
 59:   3546.41   0.000000    0.00  0.000000  ( 0.000000 -0.000000 -0.000000)

--------------------------
THERMOCHEMISTRY AT 298.15K
--------------------------

Temperature         ...   298.15 K
Pressure            ...     1.00 atm
Total Mass          ...   130.19 AMU
Quasi RRHO          ...     True
Cut-Off Frequency   ...     1.00 cm^-1

Throughout the following assumptions are being made:
  (1) The electronic state is orbitally nondegenerate
  (2) There are no thermally accessible electronically excited states
  (3) Hindered rotations indicated by low frequency modes are not
      treated as such but are treated as vibrations and this may
      cause some error
  (4) All equations used are the standard statistical mechanics
      equations for an ideal gas
  (5) All vibrations are strictly harmonic

freq.      43.87  E(vib)   ...       0.53
freq.      77.06  E(vib)   ...       0.49
freq.     150.56  E(vib)   ...       0.40
freq.     179.77  E(vib)   ...       0.37
freq.     264.46  E(vib)   ...       0.29
freq.     301.31  E(vib)   ...       0.26
freq.     407.44  E(vib)   ...       0.19
freq.     423.74  E(vib)   ...       0.18
freq.     468.31  E(vib)   ...       0.16
freq.     487.36  E(vib)   ...       0.15
freq.     578.32  E(vib)   ...       0.11
freq.     657.07  E(vib)   ...       0.08
freq.     673.01  E(vib)   ...       0.08
freq.     706.63  E(vib)   ...       0.07
freq.     734.72  E(vib)   ...       0.06
freq.     809.53  E(vib)   ...       0.05
freq.     862.07  E(vib)   ...       0.04
freq.     892.41  E(vib)   ...       0.03
freq.     895.13  E(vib)   ...       0.03
freq.     980.40  E(vib)   ...       0.02
freq.     980.51  E(vib)   ...       0.02
freq.    1016.69  E(vib)   ...       0.02
freq.    1035.16  E(vib)   ...       0.02
freq.    1073.26  E(vib)   ...       0.02
freq.    1101.76  E(vib)   ...       0.02
freq.    1105.96  E(vib)   ...       0.02
freq.    1106.10  E(vib)   ...       0.02
freq.    1110.38  E(vib)   ...       0.02
freq.    1203.09  E(vib)   ...       0.01
freq.    1260.24  E(vib)   ...       0.01
freq.    1283.93  E(vib)   ...       0.01
freq.    1295.50  E(vib)   ...       0.01
freq.    1350.10  E(vib)   ...       0.01
freq.    1397.84  E(vib)   ...       0.00
freq.    1421.10  E(vib)   ...       0.00
freq.    1426.37  E(vib)   ...       0.00
freq.    1513.92  E(vib)   ...       0.00
freq.    1565.40  E(vib)   ...       0.00
freq.    1574.98  E(vib)   ...       0.00
freq.    1638.89  E(vib)   ...       0.00
freq.    1690.33  E(vib)   ...       0.00
freq.    1737.76  E(vib)   ...       0.00
freq.    1814.11  E(vib)   ...       0.00
freq.    1815.09  E(vib)   ...       0.00
freq.    3394.10  E(vib)   ...       0.00
freq.    3394.71  E(vib)   ...       0.00
freq.    3432.10  E(vib)   ...       0.00
freq.    3432.10  E(vib)   ...       0.00
freq.    3447.28  E(vib)   ...       0.00
freq.    3450.84  E(vib)   ...       0.00
freq.    3470.83  E(vib)   ...       0.00
freq.    3474.00  E(vib)   ...       0.00
freq.    3546.40  E(vib)   ...       0.00
freq.    3546.41  E(vib)   ...       0.00

------------
INNER ENERGY
------------

The inner energy is: U= E(el) + E(ZPE) + E(vib) + E(rot) + E(trans)
    E(el)   - is the total energy from the electronic structure calculation
              = E(kin-el) + E(nuc-el) + E(el-el) + E(nuc-nuc)
    E(ZPE)  - the the zero temperature vibrational energy from the frequency calculation
    E(vib)  - the the finite temperature correction to E(ZPE) due to population
              of excited vibrational states
    E(rot)  - is the rotational thermal energy
    E(trans)- is the translational thermal energy

Summary of contributions to the inner energy U:
Electronic energy                ...   -382.05510711 Eh
Zero point energy                ...      0.17701463 Eh     111.08 kcal/mol
Thermal vibrational correction   ...      0.00608063 Eh       3.82 kcal/mol
Thermal rotational correction    ...      0.00141627 Eh       0.89 kcal/mol
Thermal translational correction ...      0.00141627 Eh       0.89 kcal/mol
-----------------------------------------------------------------------
Total thermal energy                   -381.86917930 Eh

Summary of corrections to the electronic energy:
(perhaps to be used in another calculation)
Total thermal correction                  0.00891318 Eh       5.59 kcal/mol
Non-thermal (ZPE) correction              0.17701463 Eh     111.08 kcal/mol
-----------------------------------------------------------------------
Total correction                          0.18592781 Eh     116.67 kcal/mol

--------
ENTHALPY
--------

The enthalpy is H = U + kB*T
                kB is Boltzmann's constant
Total thermal energy              ...   -381.86917930 Eh
Thermal Enthalpy correction       ...      0.00094421 Eh       0.59 kcal/mol
-----------------------------------------------------------------------
Total Enthalpy                    ...   -381.86823509 Eh

Note: Rotational entropy computed according to Herzberg
Infrared and Raman Spectra, Chapter V,1, Van Nostrand Reinhold, 1945
Point Group:  C2h, Symmetry Number:   2
Rotational constants in cm-1:     0.153923     0.022856     0.019901

Vibrational entropy computed according to the QRRHO of S. Grimme
Chem.Eur.J. 2012 18 9955 using a reference frequency of 100.0 cm-1

-------
ENTROPY
-------

The entropy contributions are T*S = T*(S(el)+S(vib)+S(rot)+S(trans))
     S(el)   - electronic entropy
     S(vib)  - vibrational entropy
     S(rot)  - rotational entropy
     S(trans)- translational entropy
The entropies will be listed as multiplied by the temperature to get
units of energy

Electronic entropy                ...      0.00000000 Eh      0.00 kcal/mol
Vibrational entropy               ...      0.01029271 Eh      6.46 kcal/mol
Rotational entropy                ...      0.01337276 Eh      8.39 kcal/mol
Translational entropy             ...      0.01924489 Eh     12.08 kcal/mol
-----------------------------------------------------------------------
Final entropy term                ...      0.04291036 Eh     26.93 kcal/mol

In case the symmetry of your molecule has not been determined correctly
or in case you have a reason to use a different symmetry number we print
out the resulting rotational entropy values for sn=1,12:

 non-linear molecules -----------------------------------
|  sn= 1 | S(rot)=       0.01402722 Eh      8.80 kcal/mol|
|  sn= 2 | S(rot)=       0.01337276 Eh      8.39 kcal/mol|
|  sn= 3 | S(rot)=       0.01298993 Eh      8.15 kcal/mol|
|  sn= 4 | S(rot)=       0.01271831 Eh      7.98 kcal/mol|
|  sn= 5 | S(rot)=       0.01250762 Eh      7.85 kcal/mol|
|  sn= 6 | S(rot)=       0.01233548 Eh      7.74 kcal/mol|
|  sn= 7 | S(rot)=       0.01218993 Eh      7.65 kcal/mol|
|  sn= 8 | S(rot)=       0.01206385 Eh      7.57 kcal/mol|
|  sn= 9 | S(rot)=       0.01195264 Eh      7.50 kcal/mol|
|  sn=10 | S(rot)=       0.01185316 Eh      7.44 kcal/mol|
|  sn=11 | S(rot)=       0.01176317 Eh      7.38 kcal/mol|

                             ****ORCA TERMINATED NORMALLY****
TOTAL RUN TIME: 0 days 0 hours 0 minutes 50 seconds 462 msec
