                         Program Version 5.0.3 -  RELEASE  -
|  1> ! B3LYP NOCOSX NORI STO-3G TightSCF SP
|  2> %Pal NProcs 1 end
|  3> %MaxCore 2000
|  4> %SCF
|  5>     AutoTRAH    True
|  6>     CNVDamp     False
|  7>     CNVZerner   False
|  8>     end
|  9> *xyz 0 1
| 10> C            -1.41525000     0.23022000     0.00000000
| 11> C             1.41525000    -0.23022000     0.00000000
| 12> C            -0.49513000     1.31446000     0.00000000
| 13> C             0.49513000    -1.31446000     0.00000000
| 14> C             0.88941000     1.09095000     0.00000000
| 15> C            -0.88941000    -1.09095000     0.00000000
| 16> H            -0.87955000     2.34373000     0.00000000
| 17> H             0.87955000    -2.34373000     0.00000000
| 18> H             1.57790000     1.94501000     0.00000000
| 19> H            -1.57790000    -1.94501000     0.00000000
| 20> C             2.88458000    -0.52109000     0.00000000
| 21> C            -2.88458000     0.52109000     0.00000000
| 22> H             3.14034000    -1.59196000     0.00000000
| 23> H            -3.14034000     1.59196000     0.00000000
| 24> C             3.88004000     0.38225000     0.00000000
| 25> C            -3.88004000    -0.38225000     0.00000000
| 26> H             3.69468000     1.46244000     0.00000000
| 27> H            -3.69468000    -1.46244000     0.00000000
| 28> H             4.93164000     0.07111000     0.00000000
| 29> H            -4.93164000    -0.07111000     0.00000000
| 30> *
| 31>
| 32> %eprnmr
| 33>   nuclei = all C { shift, ssall};
| 34>   nuclei = all H { shift, ssall};
| 35> end
| 36>
| 37>                          ****END OF INPUT****

CARTESIAN COORDINATES (ANGSTROEM)
---------------------------------
  C     -1.415250    0.230220    0.000000
  C      1.415250   -0.230220    0.000000
  C     -0.495130    1.314460    0.000000
  C      0.495130   -1.314460    0.000000
  C      0.889410    1.090950    0.000000
  C     -0.889410   -1.090950    0.000000
  H     -0.879550    2.343730    0.000000
  H      0.879550   -2.343730    0.000000
  H      1.577900    1.945010    0.000000
  H     -1.577900   -1.945010    0.000000
  C      2.884580   -0.521090    0.000000
  C     -2.884580    0.521090    0.000000
  H      3.140340   -1.591960    0.000000
  H     -3.140340    1.591960    0.000000
  C      3.880040    0.382250    0.000000
  C     -3.880040   -0.382250    0.000000
  H      3.694680    1.462440    0.000000
  H     -3.694680   -1.462440    0.000000
  H      4.931640    0.071110    0.000000
  H     -4.931640   -0.071110    0.000000

 Total Charge           Charge          ....    0
 Multiplicity           Mult            ....    1
 Number of Electrons    NEL             ....   70
 Basis Dimension        Dim             ....   60

ORBITAL ENERGIES
----------------

  NO   OCC          E(Eh)            E(eV)
   0   2.0000     -10.016215      -272.5551
   1   2.0000     -10.016166      -272.5537
   2   2.0000     -10.003938      -272.2210
   3   2.0000     -10.003937      -272.2210
   4   2.0000     -10.002888      -272.1924
   5   2.0000     -10.002886      -272.1924
   6   2.0000     -10.002241      -272.1748
   7   2.0000     -10.002098      -272.1709
   8   2.0000      -9.988175      -271.7921
   9   2.0000      -9.988175      -271.7921
  10   2.0000      -0.805831       -21.9278
  11   2.0000      -0.750298       -20.4166
  12   2.0000      -0.714222       -19.4350
  13   2.0000      -0.696285       -18.9469
  14   2.0000      -0.663668       -18.0593
  15   2.0000      -0.584871       -15.9152
  16   2.0000      -0.555510       -15.1162
  17   2.0000      -0.527785       -14.3618
  18   2.0000      -0.506303       -13.7772
  19   2.0000      -0.453967       -12.3531
  20   2.0000      -0.435563       -11.8523
  21   2.0000      -0.407375       -11.0852
  22   2.0000      -0.394048       -10.7226
  23   2.0000      -0.392298       -10.6750
  24   2.0000      -0.370791       -10.0897
  25   2.0000      -0.347276        -9.4499
  26   2.0000      -0.343369        -9.3435
  27   2.0000      -0.320878        -8.7315
  28   2.0000      -0.307418        -8.3653
  29   2.0000      -0.289322        -7.8728
  30   2.0000      -0.283843        -7.7238
  31   2.0000      -0.259854        -7.0710
  32   2.0000      -0.208727        -5.6797
  33   2.0000      -0.191560        -5.2126
  34   2.0000      -0.149378        -4.0648
  35   0.0000       0.041142         1.1195
  36   0.0000       0.093754         2.5512
  37   0.0000       0.114366         3.1121
  38   0.0000       0.185851         5.0573
  39   0.0000       0.275961         7.5093

MULLIKEN ATOMIC CHARGES
-----------------------
   0 C :   -0.004349
   1 C :   -0.004349
   2 C :   -0.076574
   3 C :   -0.076574
   4 C :   -0.076965
   5 C :   -0.076965
   6 H :    0.077831
   7 H :    0.077831
   8 H :    0.079168
   9 H :    0.079168
  10 C :   -0.076222
  11 C :   -0.076222
  12 H :    0.076536
  13 H :    0.076536
  14 C :   -0.154541
  15 C :   -0.154541
  16 H :    0.075972
  17 H :    0.075972
  18 H :    0.079145
  19 H :    0.079145
Sum of atomic charges:   -0.0000000

LOEWDIN ATOMIC CHARGES
----------------------
   0 C :    0.003772
   1 C :    0.003772
   2 C :   -0.043822
   3 C :   -0.043822
   4 C :   -0.044099
   5 C :   -0.044099
   6 H :    0.042102
   7 H :    0.042102
   8 H :    0.043642
   9 H :    0.043642
  10 C :   -0.038889
  11 C :   -0.038889
  12 H :    0.040930
  13 H :    0.040930
  14 C :   -0.091503
  15 C :   -0.091503
  16 H :    0.042935
  17 H :    0.042935
  18 H :    0.044932
  19 H :    0.044932

  Mayer bond orders larger than 0.100000
B(  0-C ,  2-C ) :   1.3631 B(  0-C ,  5-C ) :   1.3652 B(  0-C , 11-C ) :   1.0664
B(  1-C ,  3-C ) :   1.3631 B(  1-C ,  4-C ) :   1.3652 B(  1-C , 10-C ) :   1.0664
B(  2-C ,  4-C ) :   1.4652 B(  2-C ,  6-H ) :   0.9614 B(  3-C ,  5-C ) :   1.4652
B(  3-C ,  7-H ) :   0.9614 B(  4-C ,  5-C ) :   0.1022 B(  4-C ,  8-H ) :   0.9595
B(  5-C ,  9-H ) :   0.9595 B( 10-C , 12-H ) :   0.9592 B( 10-C , 14-C ) :   1.9013
B( 11-C , 13-H ) :   0.9592 B( 11-C , 15-C ) :   1.9013 B( 14-C , 16-H ) :   0.9664
B( 14-C , 18-H ) :   0.9693 B( 15-C , 17-H ) :   0.9664 B( 15-C , 19-H ) :   0.9693

FINAL SINGLE POINT ENERGY      -382.050692213749

DIPOLE MOMENT
-------------
                                X             Y             Z
Electronic contribution:      0.00000       0.00000       0.00000
Nuclear contribution   :      0.00000       0.00000       0.00000
                        -----------------------------------------
Total Dipole Moment    :      0.00000       0.00000       0.00000
                        -----------------------------------------
Magnitude (a.u.)       :      0.00000
Magnitude (Debye)      :      0.00000

Rotational constants in cm-1:     0.153923     0.022856     0.019901
Rotational constants in MHz :  4614.502067   685.206881   596.615512

CHEMICAL SHIELDING SUMMARY (ppm)
--------------------------------

  Nucleus  Element    Isotropic     Anisotropy
  -------  -------  ------------   ------------
      0       C          114.093        147.655
      1       C          114.093        147.655
      2       C          117.765        132.548
      3       C          117.765        132.548
      4       C          121.248        142.470
      5       C          121.248        142.470
     10       C          116.083        117.584
     11       C          116.083        117.584
     14       C          128.434        126.164
     15       C          128.434        126.164
      6       H           25.568          4.982
      7       H           25.568          4.982
      8       H           25.150          5.779
      9       H           25.150          5.779
     12       H           26.065          5.528
     13       H           26.065          5.528
     16       H           26.788          6.538
     17       H           26.788          6.538
     18       H           27.101          5.219
     19       H           27.101          5.219

                             ****ORCA TERMINATED NORMALLY****
TOTAL RUN TIME: 0 days 0 hours 2 minutes 13 seconds 593 msec
