                         Program Version 5.0.3 -  RELEASE  -
|  1> ! STEOM-CCSD NOCOSX NORI STO-3G TightSCF
|  2> %Pal NProcs 4 end
|  3> %MaxCore 2500
|  4> %SCF
|  5>     AutoTRAH    True
|  6>     CNVDamp     False
|  7>     CNVZerner   False
|  8>     end
|  9> %mdci
| 10>     MaxIter     200
| 11>     NRoots      2
| 12>     DoTriplet   false
| 13>     STEOMSOC    false
| 14>     DoDbfilter  false
| 15>     DoSTEOMNatTransOrb  True
| 16>     DoStoreSTEOM        True
| 17>     end
| 18>
| 19> *xyz 0 1
| 20> C            -1.41525000     0.23022000     0.00000000
| 21> C             1.41525000    -0.23022000     0.00000000
| 22> C            -0.49513000     1.31446000     0.00000000
| 23> C             0.49513000    -1.31446000     0.00000000
| 24> C             0.88941000     1.09095000     0.00000000
| 25> C            -0.88941000    -1.09095000     0.00000000
| 26> H            -0.87955000     2.34373000     0.00000000
| 27> H             0.87955000    -2.34373000     0.00000000
| 28> H             1.57790000     1.94501000     0.00000000
| 29> H            -1.57790000    -1.94501000     0.00000000
| 30> C             2.88458000    -0.52109000     0.00000000
| 31> C            -2.88458000     0.52109000     0.00000000
| 32> H             3.14034000    -1.59196000     0.00000000
| 33> H            -3.14034000     1.59196000     0.00000000
| 34> C             3.88004000     0.38225000     0.00000000
| 35> C            -3.88004000    -0.38225000     0.00000000
| 36> H             3.69468000     1.46244000     0.00000000
| 37> H            -3.69468000    -1.46244000     0.00000000
| 38> H             4.93165000     0.07110000     0.00000000
| 39> H            -4.93165000    -0.07110000     0.00000000
| 40> **                         ****END OF INPUT****

CARTESIAN COORDINATES (ANGSTROEM)
---------------------------------
  C     -1.415250    0.230220    0.000000
  C      1.415250   -0.230220    0.000000
  C     -0.495130    1.314460    0.000000
  C      0.495130   -1.314460    0.000000
  C      0.889410    1.090950    0.000000
  C     -0.889410   -1.090950    0.000000
  H     -0.879550    2.343730    0.000000
  H      0.879550   -2.343730    0.000000
  H      1.577900    1.945010    0.000000
  H     -1.577900   -1.945010    0.000000
  C      2.884580   -0.521090    0.000000
  C     -2.884580    0.521090    0.000000
  H      3.140340   -1.591960    0.000000
  H     -3.140340    1.591960    0.000000
  C      3.880040    0.382250    0.000000
  C     -3.880040   -0.382250    0.000000
  H      3.694680    1.462440    0.000000
  H     -3.694680   -1.462440    0.000000
  H      4.931650    0.071100    0.000000
  H     -4.931650   -0.071100    0.000000

 Total Charge           Charge          ....    0
 Multiplicity           Mult            ....    1
 Number of Electrons    NEL             ....   70
 Basis Dimension        Dim             ....   60

ORBITAL ENERGIES
----------------

  NO   OCC          E(Eh)            E(eV)
   0   2.0000     -11.040588      -300.4297
   1   2.0000     -11.040525      -300.4280
   2   2.0000     -11.031589      -300.1848
   3   2.0000     -11.031588      -300.1848
   4   2.0000     -11.028952      -300.1130
   5   2.0000     -11.028822      -300.1095
   6   2.0000     -11.028608      -300.1037
   7   2.0000     -11.028585      -300.1031
   8   2.0000     -11.017480      -299.8009
   9   2.0000     -11.017480      -299.8009
  10   2.0000      -1.090298       -29.6685
  11   2.0000      -1.020253       -27.7625
  12   2.0000      -0.974925       -26.5291
  13   2.0000      -0.950302       -25.8590
  14   2.0000      -0.909634       -24.7524
  15   2.0000      -0.799882       -21.7659
  16   2.0000      -0.762826       -20.7575
  17   2.0000      -0.727630       -19.7998
  18   2.0000      -0.696776       -18.9602
  19   2.0000      -0.628052       -17.0902
  20   2.0000      -0.605677       -16.4813
  21   2.0000      -0.572941       -15.5905
  22   2.0000      -0.553603       -15.0643
  23   2.0000      -0.553165       -15.0524
  24   2.0000      -0.525359       -14.2958
  25   2.0000      -0.496698       -13.5158
  26   2.0000      -0.492526       -13.4023
  27   2.0000      -0.463730       -12.6187
  28   2.0000      -0.446430       -12.1480
  29   2.0000      -0.421653       -11.4738
  30   2.0000      -0.415621       -11.3096
  31   2.0000      -0.376963       -10.2577
  32   2.0000      -0.315127        -8.5750
  33   2.0000      -0.278364        -7.5747
  34   2.0000      -0.222189        -6.0461
  35   0.0000       0.198994         5.4149
  36   0.0000       0.268517         7.3067
  37   0.0000       0.308826         8.4036
  38   0.0000       0.397078        10.8050
  39   0.0000       0.521759        14.1978

E(0)                                       ...   -379.768963134
E(0)                                       ...   -379.768963134
E(CORR)                                    ...     -0.731434600
E(TOT)                                     ...   -380.500397734

MULLIKEN ATOMIC CHARGES
-----------------------
   0 C :   -0.001497
   1 C :   -0.001497
   2 C :   -0.058531
   3 C :   -0.058531
   4 C :   -0.059360
   5 C :   -0.059360
   6 H :    0.058432
   7 H :    0.058432
   8 H :    0.060017
   9 H :    0.060017
  10 C :   -0.056006
  11 C :   -0.056006
  12 H :    0.057293
  13 H :    0.057293
  14 C :   -0.118451
  15 C :   -0.118451
  16 H :    0.057670
  17 H :    0.057670
  18 H :    0.060433
  19 H :    0.060433
Sum of atomic charges:   -0.0000000

LOEWDIN ATOMIC CHARGES
----------------------
   0 C :    0.005856
   1 C :    0.005856
   2 C :   -0.031050
   3 C :   -0.031050
   4 C :   -0.031593
   5 C :   -0.031593
   6 H :    0.028172
   7 H :    0.028172
   8 H :    0.029896
   9 H :    0.029896
  10 C :   -0.024397
  11 C :   -0.024397
  12 H :    0.027110
  13 H :    0.027110
  14 C :   -0.065431
  15 C :   -0.065431
  16 H :    0.029889
  17 H :    0.029889
  18 H :    0.031547
  19 H :    0.031547

  Mayer bond orders larger than 0.100000
B(  0-C ,  2-C ) :   1.2644 B(  0-C ,  5-C ) :   1.2657 B(  0-C , 11-C ) :   0.9827
B(  1-C ,  3-C ) :   1.2644 B(  1-C ,  4-C ) :   1.2657 B(  1-C , 10-C ) :   0.9827
B(  2-C ,  4-C ) :   1.3308 B(  2-C ,  6-H ) :   0.9231 B(  3-C ,  5-C ) :   1.3308
B(  3-C ,  7-H ) :   0.9231 B(  4-C ,  8-H ) :   0.9219 B(  5-C ,  9-H ) :   0.9219
B( 10-C , 12-H ) :   0.9208 B( 10-C , 14-C ) :   1.6875 B( 11-C , 13-H ) :   0.9208
B( 11-C , 15-C ) :   1.6875 B( 14-C , 16-H ) :   0.9279 B( 14-C , 18-H ) :   0.9299
B( 15-C , 17-H ) :   0.9279 B( 15-C , 19-H ) :   0.9299

-----------------------------------------------------------------------------
         ABSORPTION SPECTRUM VIA TRANSITION ELECTRIC DIPOLE MOMENTS
-----------------------------------------------------------------------------
State   Energy  Wavelength   fosc         T2         TX        TY        TZ
        (cm-1)    (nm)                  (au**2)     (au)      (au)      (au)
-----------------------------------------------------------------------------
   1   37835.4    264.3   0.000322721   0.00281   0.03816   0.03597   0.00001
   2   61707.9    162.1   1.079744291   5.76044   2.39996   0.02517   0.00002

FINAL SINGLE POINT ENERGY      -380.328007146120

DIPOLE MOMENT
-------------
                                X             Y             Z
Electronic contribution:      0.00000      -0.00000      -0.00000
Nuclear contribution   :      0.00000       0.00000       0.00000
                        -----------------------------------------
Total Dipole Moment    :      0.00000      -0.00000      -0.00000
                        -----------------------------------------
Magnitude (a.u.)       :      0.00000
Magnitude (Debye)      :      0.00000

Rotational constants in cm-1:     0.153923     0.022856     0.019901
Rotational constants in MHz :  4614.502149   685.206697   596.615374

                             ****ORCA TERMINATED NORMALLY****
TOTAL RUN TIME: 0 days 0 hours 0 minutes 51 seconds 695 msec
