                         Program Version 6.0.1  -  RELEASE   -
|  1> !  b3lyp sto-3g usesym numfreq
|  2>
|  3> %elprop
|  4>  polar 1
|  5>  end
|  6>
|  7> * xyz 0 1
|  8>  C       -1.4152533224   0.2302217854   0.0000000000
|  9>  C        1.4152533224  -0.2302217854   0.0000000000
| 10>  C       -0.4951331558   1.3144608674   0.0000000000
| 11>  C        0.4951331558  -1.3144608674   0.0000000000
| 12>  C        0.8894090436   1.0909493743   0.0000000000
| 13>  C       -0.8894090436  -1.0909493743   0.0000000000
| 14>  H       -0.8795511985   2.3437343748   0.0000000000
| 15>  H        0.8795511985  -2.3437343748   0.0000000000
| 16>  H        1.5779041557   1.9450061275   0.0000000000
| 17>  H       -1.5779041557  -1.9450061275   0.0000000000
| 18>  C        2.8845844962  -0.5210893778   0.0000000000
| 19>  C       -2.8845844962   0.5210893778   0.0000000000
| 20>  H        3.1403356810  -1.5919605685   0.0000000000
| 21>  H       -3.1403356810   1.5919605685   0.0000000000
| 22>  C        3.8800428103   0.3822535424   0.0000000000
| 23>  C       -3.8800428103  -0.3822535424   0.0000000000
| 24>  H        3.6946765858   1.4624389570   0.0000000000
| 25>  H       -3.6946765858  -1.4624389570   0.0000000000
| 26>  H        4.9316453546   0.0711049543   0.0000000000
| 27>  H       -4.9316453546  -0.0711049543   0.0000000000
| 28> *
| 29> %pal
| 30>  nprocs 14
| 31> end
| 32> %MaxCore 700
| 33>
| 34>                          ****END OF INPUT****

CARTESIAN COORDINATES (ANGSTROEM)
---------------------------------
  C     -1.415253    0.230222    0.000000
  C      1.415253   -0.230222    0.000000
  C     -0.495133    1.314461    0.000000
  C      0.495133   -1.314461    0.000000
  C      0.889409    1.090949    0.000000
  C     -0.889409   -1.090949    0.000000
  H     -0.879551    2.343734    0.000000
  H      0.879551   -2.343734    0.000000
  H      1.577904    1.945006    0.000000
  H     -1.577904   -1.945006    0.000000
  C      2.884584   -0.521089    0.000000
  C     -2.884584    0.521089    0.000000
  H      3.140336   -1.591961    0.000000
  H     -3.140336    1.591961    0.000000
  C      3.880043    0.382254    0.000000
  C     -3.880043   -0.382254    0.000000
  H      3.694677    1.462439    0.000000
  H     -3.694677   -1.462439    0.000000
  H      4.931645    0.071105    0.000000
  H     -4.931645   -0.071105    0.000000

 Total Charge           Charge          ....    0
 Multiplicity           Mult            ....    1
 Number of Electrons    NEL             ....   70
 Basis Dimension        Dim             ....   60

ORBITAL ENERGIES
----------------

  NO   OCC          E(Eh)            E(eV)
   0   2.0000     -10.016647      -272.5668
   1   2.0000     -10.016598      -272.5655
   2   2.0000     -10.004496      -272.2362
   3   2.0000     -10.004496      -272.2362
   4   2.0000     -10.003432      -272.2072
   5   2.0000     -10.003430      -272.2072
   6   2.0000     -10.002779      -272.1895
   7   2.0000     -10.002637      -272.1856
   8   2.0000      -9.988681      -271.8058
   9   2.0000      -9.988681      -271.8058
  10   2.0000      -0.805842       -21.9281
  11   2.0000      -0.750289       -20.4164
  12   2.0000      -0.714224       -19.4350
  13   2.0000      -0.696303       -18.9474
  14   2.0000      -0.663670       -18.0594
  15   2.0000      -0.584888       -15.9156
  16   2.0000      -0.555523       -15.1165
  17   2.0000      -0.527794       -14.3620
  18   2.0000      -0.506326       -13.7778
  19   2.0000      -0.453980       -12.3534
  20   2.0000      -0.435574       -11.8526
  21   2.0000      -0.407384       -11.0855
  22   2.0000      -0.394074       -10.7233
  23   2.0000      -0.392312       -10.6754
  24   2.0000      -0.370812       -10.0903
  25   2.0000      -0.347301        -9.4505
  26   2.0000      -0.343396        -9.3443
  27   2.0000      -0.320877        -8.7315
  28   2.0000      -0.307438        -8.3658
  29   2.0000      -0.289354        -7.8737
  30   2.0000      -0.283873        -7.7246
  31   2.0000      -0.259854        -7.0710
  32   2.0000      -0.208746        -5.6803
  33   2.0000      -0.191572        -5.2129
  34   2.0000      -0.149378        -4.0648
  35   0.0000       0.041165         1.1201
  36   0.0000       0.093760         2.5513
  37   0.0000       0.114373         3.1123
  38   0.0000       0.185871         5.0578
  39   0.0000       0.275996         7.5102

MULLIKEN ATOMIC CHARGES
-----------------------
   0 C :   -0.004313
   1 C :   -0.004313
   2 C :   -0.076533
   3 C :   -0.076533
   4 C :   -0.076897
   5 C :   -0.076897
   6 H :    0.077763
   7 H :    0.077763
   8 H :    0.079095
   9 H :    0.079095
  10 C :   -0.076149
  11 C :   -0.076149
  12 H :    0.076467
  13 H :    0.076467
  14 C :   -0.154402
  15 C :   -0.154402
  16 H :    0.075902
  17 H :    0.075902
  18 H :    0.079067
  19 H :    0.079067
Sum of atomic charges:    0.0000000

LOEWDIN ATOMIC CHARGES
----------------------
   0 C :    0.003801
   1 C :    0.003801
   2 C :   -0.043796
   3 C :   -0.043796
   4 C :   -0.044047
   5 C :   -0.044047
   6 H :    0.042052
   7 H :    0.042052
   8 H :    0.043587
   9 H :    0.043587
  10 C :   -0.038833
  11 C :   -0.038833
  12 H :    0.040880
  13 H :    0.040880
  14 C :   -0.091401
  15 C :   -0.091401
  16 H :    0.042883
  17 H :    0.042883
  18 H :    0.044874
  19 H :    0.044874

  Mayer bond orders larger than 0.100000
B(  0-C ,  2-C ) :   1.3631 B(  0-C ,  5-C ) :   1.3652 B(  0-C , 11-C ) :   1.0664
B(  1-C ,  3-C ) :   1.3631 B(  1-C ,  4-C ) :   1.3652 B(  1-C , 10-C ) :   1.0664
B(  2-C ,  4-C ) :   1.4652 B(  2-C ,  6-H ) :   0.9614 B(  3-C ,  5-C ) :   1.4652
B(  3-C ,  7-H ) :   0.9614 B(  4-C ,  5-C ) :   0.1022 B(  4-C ,  8-H ) :   0.9595
B(  5-C ,  9-H ) :   0.9595 B( 10-C , 12-H ) :   0.9592 B( 10-C , 14-C ) :   1.9013
B( 11-C , 13-H ) :   0.9592 B( 11-C , 15-C ) :   1.9013 B( 14-C , 16-H ) :   0.9664
B( 14-C , 18-H ) :   0.9693 B( 15-C , 17-H ) :   0.9664 B( 15-C , 19-H ) :   0.9693

FINAL SINGLE POINT ENERGY      -382.055108617935

DIPOLE MOMENT
-------------

Method             : SCF
Type of density    : Electron Density
Multiplicity       :   1
Irrep              :   0
Energy             :  -382.0551086179353319 Eh
Relativity type    :
Basis              : AO
                                X                 Y                 Z
Electronic contribution:      0.000000012      -0.000000005      -0.000000002
Nuclear contribution   :      0.000000000       0.000000000       0.000000000
                        -----------------------------------------
Total Dipole Moment    :      0.000000012      -0.000000005      -0.000000002
                        -----------------------------------------
Magnitude (a.u.)       :      0.000000013
Magnitude (Debye)      :      0.000000033

VIBRATIONAL FREQUENCIES
-----------------------

Scaling factor for frequencies =  1.000000000  (already applied!)

     0:       0.00 cm**-1
     1:       0.00 cm**-1
     2:       0.00 cm**-1
     3:       0.00 cm**-1
     4:       0.00 cm**-1
     5:       0.00 cm**-1
     6:      36.86 cm**-1
     7:      70.06 cm**-1
     8:     144.38 cm**-1
     9:     171.22 cm**-1
    10:     262.44 cm**-1
    11:     297.60 cm**-1
    12:     407.19 cm**-1
    13:     422.98 cm**-1
    14:     466.21 cm**-1
    15:     479.99 cm**-1
    16:     568.72 cm**-1
    17:     655.76 cm**-1
    18:     663.10 cm**-1
    19:     704.52 cm**-1
    20:     726.01 cm**-1
    21:     809.42 cm**-1
    22:     851.32 cm**-1
    23:     892.03 cm**-1
    24:     894.61 cm**-1
    25:     978.96 cm**-1
    26:     979.12 cm**-1
    27:    1016.80 cm**-1
    28:    1035.32 cm**-1
    29:    1061.48 cm**-1
    30:    1093.34 cm**-1
    31:    1101.92 cm**-1
    32:    1107.10 cm**-1
    33:    1107.26 cm**-1
    34:    1190.19 cm**-1
    35:    1247.72 cm**-1
    36:    1279.59 cm**-1
    37:    1293.10 cm**-1
    38:    1355.90 cm**-1
    39:    1391.40 cm**-1
    40:    1424.68 cm**-1
    41:    1428.22 cm**-1
    42:    1505.15 cm**-1
    43:    1558.56 cm**-1
    44:    1569.46 cm**-1
    45:    1632.97 cm**-1
    46:    1692.57 cm**-1
    47:    1739.89 cm**-1
    48:    1813.14 cm**-1
    49:    1813.55 cm**-1
    50:    3393.41 cm**-1
    51:    3394.67 cm**-1
    52:    3423.65 cm**-1
    53:    3423.81 cm**-1
    54:    3435.64 cm**-1
    55:    3436.34 cm**-1
    56:    3462.03 cm**-1
    57:    3470.65 cm**-1
    58:    3545.58 cm**-1
    59:    3545.64 cm**-1

IR SPECTRUM
-----------

 Mode   freq       eps      Int      T**2         TX        TY        TZ
       cm**-1   L/(mol*cm) km/mol    a.u.
----------------------------------------------------------------------------
  6:     36.86   0.000004    0.02  0.000031  (-0.000007  0.000005 -0.005552)
  7:     70.06   0.000000    0.00  0.000000  ( 0.000013  0.000001 -0.000005)
  8:    144.38   0.000074    0.37  0.000159  ( 0.000000  0.000003  0.012627)
  9:    171.22   0.000025    0.13  0.000046  (-0.000586 -0.006755  0.000029)
 10:    262.44   0.000000    0.00  0.000000  (-0.000009 -0.000001 -0.000015)
 11:    297.60   0.000000    0.00  0.000000  (-0.000002  0.000001  0.000003)
 12:    407.19   0.000000    0.00  0.000000  (-0.000019 -0.000004  0.000008)
 13:    422.98   0.000021    0.10  0.000015  (-0.000004 -0.000000 -0.003894)
 14:    466.21   0.001154    5.83  0.000772  ( 0.000017  0.000004  0.027793)
 15:    479.99   0.000294    1.48  0.000191  (-0.013525 -0.002838  0.000023)
 16:    568.72   0.000000    0.00  0.000000  (-0.000012 -0.000004 -0.000007)
 17:    655.76   0.000000    0.00  0.000000  (-0.000006 -0.000002  0.000003)
 18:    663.10   0.000000    0.00  0.000000  ( 0.000003  0.000001 -0.000003)
 19:    704.52   0.000097    0.49  0.000043  ( 0.000063  0.000001 -0.006570)
 20:    726.01   0.000659    3.33  0.000283  (-0.016815 -0.000550 -0.000028)
 21:    809.42   0.000000    0.00  0.000000  ( 0.000002 -0.000002 -0.000002)
 22:    851.32   0.000000    0.00  0.000000  (-0.000014 -0.000001 -0.000030)
 23:    892.03   0.000000    0.00  0.000000  (-0.000005 -0.000001  0.000001)
 24:    894.61   0.005171   26.13  0.001804  (-0.000003 -0.000003 -0.042471)
 25:    978.96   0.000688    3.48  0.000219  ( 0.000008 -0.000000 -0.014812)
 26:    979.12   0.006508   32.89  0.002074  (-0.000004 -0.000001  0.045545)
 27:   1016.80   0.000000    0.00  0.000000  (-0.000001  0.000005  0.000004)
 28:   1035.32   0.000001    0.01  0.000000  ( 0.000001  0.000001 -0.000588)
 29:   1061.48   0.000120    0.61  0.000035  (-0.005808  0.001278  0.000019)
 30:   1093.34   0.001261    6.37  0.000360  (-0.018754  0.002861 -0.000083)
 31:   1101.92   0.000000    0.00  0.000000  (-0.000056  0.000009 -0.000098)
 32:   1107.10   0.002574   13.01  0.000726  (-0.000054 -0.000001  0.026936)
 33:   1107.26   0.000001    0.00  0.000000  (-0.000020 -0.000001  0.000482)
 34:   1190.19   0.000326    1.65  0.000085  (-0.008276 -0.004108 -0.000034)
 35:   1247.72   0.000000    0.00  0.000000  ( 0.000017  0.000003  0.000013)
 36:   1279.59   0.000030    0.15  0.000007  (-0.001765 -0.002050  0.000007)
 37:   1293.10   0.000000    0.00  0.000000  ( 0.000018  0.000006  0.000003)
 38:   1355.90   0.002046   10.34  0.000471  ( 0.021622 -0.001869 -0.000001)
 39:   1391.40   0.000000    0.00  0.000000  ( 0.000012 -0.000007 -0.000001)
 40:   1424.68   0.002283   11.54  0.000500  ( 0.021301  0.006802 -0.000004)
 41:   1428.22   0.000000    0.00  0.000000  (-0.000022 -0.000016 -0.000004)
 42:   1505.15   0.002965   14.98  0.000615  ( 0.007909 -0.023497 -0.000003)
 43:   1558.56   0.000000    0.00  0.000000  ( 0.000026 -0.000007 -0.000001)
 44:   1569.46   0.000531    2.68  0.000106  (-0.009608 -0.003638  0.000002)
 45:   1632.97   0.002793   14.12  0.000534  ( 0.022987  0.002322  0.000000)
 46:   1692.57   0.000000    0.00  0.000000  ( 0.000005  0.000005 -0.000002)
 47:   1739.89   0.000000    0.00  0.000000  (-0.000000 -0.000003 -0.000002)
 48:   1813.14   0.000000    0.00  0.000000  (-0.000012  0.000069 -0.000001)
 49:   1813.55   0.000252    1.27  0.000043  (-0.001015  0.006505 -0.000001)
 50:   3393.41   0.019563   98.87  0.001799  (-0.041043 -0.010701  0.000000)
 51:   3394.67   0.000045    0.23  0.000004  ( 0.001968  0.000526 -0.000000)
 52:   3423.65   0.000056    0.28  0.000005  ( 0.002211  0.000432  0.000000)
 53:   3423.81   0.000357    1.80  0.000033  ( 0.005571  0.001223 -0.000000)
 54:   3435.64   0.000000    0.00  0.000000  ( 0.000077  0.000157  0.000000)
 55:   3436.34   0.000798    4.03  0.000072  ( 0.002667  0.008085 -0.000000)
 56:   3462.03   0.000000    0.00  0.000000  (-0.000043 -0.000053 -0.000000)
 57:   3470.65   0.002444   12.35  0.000220  ( 0.007715  0.012657  0.000000)
 58:   3545.58   0.000006    0.03  0.000001  ( 0.000673  0.000262  0.000000)
 59:   3545.64   0.000003    0.01  0.000000  ( 0.000467  0.000185  0.000000)

--------------------------
THERMOCHEMISTRY AT 298.15K
--------------------------

Temperature         ...   298.15 K
Pressure            ...     1.00 atm
Total Mass          ...   130.19 AMU
Quasi RRHO          ...     True
Cut-Off Frequency   ...     1.00 cm^-1

Throughout the following assumptions are being made:
  (1) The electronic state is orbitally nondegenerate
  (2) There are no thermally accessible electronically excited states
  (3) Hindered rotations indicated by low frequency modes are not
      treated as such but are treated as vibrations and this may
      cause some error
  (4) All equations used are the standard statistical mechanics
      equations for an ideal gas
  (5) All vibrations are strictly harmonic

freq.      36.86  E(vib)   ...       0.54
freq.      70.06  E(vib)   ...       0.50
freq.     144.38  E(vib)   ...       0.41
freq.     171.22  E(vib)   ...       0.38
freq.     262.44  E(vib)   ...       0.29
freq.     297.60  E(vib)   ...       0.27
freq.     407.19  E(vib)   ...       0.19
freq.     422.98  E(vib)   ...       0.18
freq.     466.21  E(vib)   ...       0.16
freq.     479.99  E(vib)   ...       0.15
freq.     568.72  E(vib)   ...       0.11
freq.     655.76  E(vib)   ...       0.08
freq.     663.10  E(vib)   ...       0.08
freq.     704.52  E(vib)   ...       0.07
freq.     726.01  E(vib)   ...       0.06
freq.     809.42  E(vib)   ...       0.05
freq.     851.32  E(vib)   ...       0.04
freq.     892.03  E(vib)   ...       0.03
freq.     894.61  E(vib)   ...       0.03
freq.     978.96  E(vib)   ...       0.03
freq.     979.12  E(vib)   ...       0.03
freq.    1016.80  E(vib)   ...       0.02
freq.    1035.32  E(vib)   ...       0.02
freq.    1061.48  E(vib)   ...       0.02
freq.    1093.34  E(vib)   ...       0.02
freq.    1101.92  E(vib)   ...       0.02
freq.    1107.10  E(vib)   ...       0.02
freq.    1107.26  E(vib)   ...       0.02
freq.    1190.19  E(vib)   ...       0.01
freq.    1247.72  E(vib)   ...       0.01
freq.    1279.59  E(vib)   ...       0.01
freq.    1293.10  E(vib)   ...       0.01
freq.    1355.90  E(vib)   ...       0.01
freq.    1391.40  E(vib)   ...       0.00
freq.    1424.68  E(vib)   ...       0.00
freq.    1428.22  E(vib)   ...       0.00
freq.    1505.15  E(vib)   ...       0.00
freq.    1558.56  E(vib)   ...       0.00
freq.    1569.46  E(vib)   ...       0.00
freq.    1632.97  E(vib)   ...       0.00
freq.    1692.57  E(vib)   ...       0.00
freq.    1739.89  E(vib)   ...       0.00
freq.    1813.14  E(vib)   ...       0.00
freq.    1813.55  E(vib)   ...       0.00
freq.    3393.41  E(vib)   ...       0.00
freq.    3394.67  E(vib)   ...       0.00
freq.    3423.65  E(vib)   ...       0.00
freq.    3423.81  E(vib)   ...       0.00
freq.    3435.64  E(vib)   ...       0.00
freq.    3436.34  E(vib)   ...       0.00
freq.    3462.03  E(vib)   ...       0.00
freq.    3470.65  E(vib)   ...       0.00
freq.    3545.58  E(vib)   ...       0.00
freq.    3545.64  E(vib)   ...       0.00

------------
INNER ENERGY
------------

The inner energy is: U= E(el) + E(ZPE) + E(vib) + E(rot) + E(trans)
    E(el)   - is the total energy from the electronic structure calculation
              = E(kin-el) + E(nuc-el) + E(el-el) + E(nuc-nuc)
    E(ZPE)  - the the zero temperature vibrational energy from the frequency calculation
    E(vib)  - the the finite temperature correction to E(ZPE) due to population
              of excited vibrational states
    E(rot)  - is the rotational thermal energy
    E(trans)- is the translational thermal energy

Summary of contributions to the inner energy U:
Electronic energy                ...   -382.05510862 Eh
Zero point energy                ...      0.17649693 Eh     110.75 kcal/mol
Thermal vibrational correction   ...      0.00617310 Eh       3.87 kcal/mol
Thermal rotational correction    ...      0.00141627 Eh       0.89 kcal/mol
Thermal translational correction ...      0.00141627 Eh       0.89 kcal/mol
-----------------------------------------------------------------------
Total thermal energy                   -381.86960605 Eh

Summary of corrections to the electronic energy:
(perhaps to be used in another calculation)
Total thermal correction                  0.00900564 Eh       5.65 kcal/mol
Non-thermal (ZPE) correction              0.17649693 Eh     110.75 kcal/mol
-----------------------------------------------------------------------
Total correction                          0.18550257 Eh     116.40 kcal/mol

--------
ENTHALPY
--------

The enthalpy is H = U + kB*T
                kB is Boltzmann's constant
Total thermal energy              ...   -381.86960605 Eh
Thermal Enthalpy correction       ...      0.00094421 Eh       0.59 kcal/mol
-----------------------------------------------------------------------
Total Enthalpy                    ...   -381.86866184 Eh

Note: Rotational entropy computed according to Herzberg
Infrared and Raman Spectra, Chapter V,1, Van Nostrand Reinhold, 1945
Point Group:  C2h, Symmetry Number:   2
Rotational constants in cm-1:     0.153923     0.022856     0.019901

Vibrational entropy computed according to the QRRHO of S. Grimme
Chem.Eur.J. 2012 18 9955 using a reference frequency of 100.0 cm-1

-------
ENTROPY
-------

The entropy contributions are T*S = T*(S(el)+S(vib)+S(rot)+S(trans))
     S(el)   - electronic entropy
     S(vib)  - vibrational entropy
     S(rot)  - rotational entropy
     S(trans)- translational entropy
The entropies will be listed as multiplied by the temperature to get
units of energy

Electronic entropy                ...      0.00000000 Eh      0.00 kcal/mol
Vibrational entropy               ...      0.01052564 Eh      6.60 kcal/mol
Rotational entropy                ...      0.01337276 Eh      8.39 kcal/mol
Translational entropy             ...      0.01924489 Eh     12.08 kcal/mol
-----------------------------------------------------------------------
Final entropy term                ...      0.04314330 Eh     27.07 kcal/mol

In case the symmetry of your molecule has not been determined correctly
or in case you have a reason to use a different symmetry number we print
out the resulting rotational entropy values for sn=1,12:

 non-linear molecules -----------------------------------
|  sn= 1 | S(rot)=       0.01402722 Eh      8.80 kcal/mol|
|  sn= 2 | S(rot)=       0.01337276 Eh      8.39 kcal/mol|
|  sn= 3 | S(rot)=       0.01298993 Eh      8.15 kcal/mol|
|  sn= 4 | S(rot)=       0.01271831 Eh      7.98 kcal/mol|
|  sn= 5 | S(rot)=       0.01250762 Eh      7.85 kcal/mol|
|  sn= 6 | S(rot)=       0.01233548 Eh      7.74 kcal/mol|
|  sn= 7 | S(rot)=       0.01218993 Eh      7.65 kcal/mol|
|  sn= 8 | S(rot)=       0.01206385 Eh      7.57 kcal/mol|
|  sn= 9 | S(rot)=       0.01195264 Eh      7.50 kcal/mol|
|  sn=10 | S(rot)=       0.01185316 Eh      7.44 kcal/mol|
|  sn=11 | S(rot)=       0.01176317 Eh      7.38 kcal/mol|

                             ****ORCA TERMINATED NORMALLY****
TOTAL RUN TIME: 0 days 0 hours 6 minutes 21 seconds 890 msec
