                         Program Version 6.0.1  -  RELEASE   -
|  1> ! B3LYP NOCOSX NORI STO-3G TightSCF SP
|  2> %Pal NProcs 2 end
|  3> %MaxCore 500
|  4> %SCF
|  5>     AutoTRAH    True
|  6>     CNVDamp     False
|  7>     CNVZerner   False
|  8>     end
|  9> *xyz 0 1
| 10> C            -1.41525300     0.23022200     0.00000000
| 11> C             1.41525300    -0.23022200     0.00000000
| 12> C            -0.49513300     1.31446100     0.00000000
| 13> C             0.49513300    -1.31446100     0.00000000
| 14> C             0.88940900     1.09094900     0.00000000
| 15> C            -0.88940900    -1.09094900     0.00000000
| 16> H            -0.87955100     2.34373400     0.00000000
| 17> H             0.87955100    -2.34373400     0.00000000
| 18> H             1.57790400     1.94500600     0.00000000
| 19> H            -1.57790400    -1.94500600     0.00000000
| 20> C             2.88458400    -0.52108900     0.00000000
| 21> C            -2.88458400     0.52108900     0.00000000
| 22> H             3.14033600    -1.59196100     0.00000000
| 23> H            -3.14033600     1.59196100     0.00000000
| 24> C             3.88004300     0.38225400     0.00000000
| 25> C            -3.88004300    -0.38225400     0.00000000
| 26> H             3.69467700     1.46243900     0.00000000
| 27> H            -3.69467700    -1.46243900     0.00000000
| 28> H             4.93164500     0.07110500     0.00000000
| 29> H            -4.93164500    -0.07110500     0.00000000
| 30> *
| 31>
| 32>                          ****END OF INPUT****

CARTESIAN COORDINATES (ANGSTROEM)
---------------------------------
  C     -1.415253    0.230222    0.000000
  C      1.415253   -0.230222    0.000000
  C     -0.495133    1.314461    0.000000
  C      0.495133   -1.314461    0.000000
  C      0.889409    1.090949    0.000000
  C     -0.889409   -1.090949    0.000000
  H     -0.879551    2.343734    0.000000
  H      0.879551   -2.343734    0.000000
  H      1.577904    1.945006    0.000000
  H     -1.577904   -1.945006    0.000000
  C      2.884584   -0.521089    0.000000
  C     -2.884584    0.521089    0.000000
  H      3.140336   -1.591961    0.000000
  H     -3.140336    1.591961    0.000000
  C      3.880043    0.382254    0.000000
  C     -3.880043   -0.382254    0.000000
  H      3.694677    1.462439    0.000000
  H     -3.694677   -1.462439    0.000000
  H      4.931645    0.071105    0.000000
  H     -4.931645   -0.071105    0.000000

 Total Charge           Charge          ....    0
 Multiplicity           Mult            ....    1
 Number of Electrons    NEL             ....   70
 Basis Dimension        Dim             ....   60

ORBITAL ENERGIES
----------------

  NO   OCC          E(Eh)            E(eV)
   0   2.0000     -10.016126      -272.5527
   1   2.0000     -10.016078      -272.5513
   2   2.0000     -10.003990      -272.2224
   3   2.0000     -10.003989      -272.2224
   4   2.0000     -10.002915      -272.1932
   5   2.0000     -10.002914      -272.1931
   6   2.0000     -10.002266      -272.1755
   7   2.0000     -10.002123      -272.1716
   8   2.0000      -9.988161      -271.7917
   9   2.0000      -9.988161      -271.7917
  10   2.0000      -0.805823       -21.9276
  11   2.0000      -0.750293       -20.4165
  12   2.0000      -0.714228       -19.4351
  13   2.0000      -0.696292       -18.9471
  14   2.0000      -0.663660       -18.0591
  15   2.0000      -0.584868       -15.9151
  16   2.0000      -0.555507       -15.1161
  17   2.0000      -0.527786       -14.3618
  18   2.0000      -0.506304       -13.7772
  19   2.0000      -0.453969       -12.3531
  20   2.0000      -0.435563       -11.8523
  21   2.0000      -0.407377       -11.0853
  22   2.0000      -0.394042       -10.7224
  23   2.0000      -0.392300       -10.6750
  24   2.0000      -0.370797       -10.0899
  25   2.0000      -0.347275        -9.4498
  26   2.0000      -0.343372        -9.3436
  27   2.0000      -0.320871        -8.7314
  28   2.0000      -0.307414        -8.3652
  29   2.0000      -0.289320        -7.8728
  30   2.0000      -0.283838        -7.7236
  31   2.0000      -0.259849        -7.0709
  32   2.0000      -0.208734        -5.6799
  33   2.0000      -0.191569        -5.2129
  34   2.0000      -0.149368        -4.0645
  35   0.0000       0.041151         1.1198
  36   0.0000       0.093745         2.5509
  37   0.0000       0.114358         3.1118
  38   0.0000       0.185856         5.0574
  39   0.0000       0.275967         7.5095

MULLIKEN ATOMIC CHARGES
-----------------------
   0 C :   -0.004349
   1 C :   -0.004349
   2 C :   -0.076584
   3 C :   -0.076584
   4 C :   -0.076976
   5 C :   -0.076976
   6 H :    0.077832
   7 H :    0.077832
   8 H :    0.079170
   9 H :    0.079170
  10 C :   -0.076201
  11 C :   -0.076201
  12 H :    0.076527
  13 H :    0.076527
  14 C :   -0.154526
  15 C :   -0.154526
  16 H :    0.075967
  17 H :    0.075967
  18 H :    0.079138
  19 H :    0.079138
Sum of atomic charges:    0.0000000

LOEWDIN ATOMIC CHARGES
----------------------
   0 C :    0.003773
   1 C :    0.003773
   2 C :   -0.043831
   3 C :   -0.043831
   4 C :   -0.044108
   5 C :   -0.044108
   6 H :    0.042104
   7 H :    0.042104
   8 H :    0.043644
   9 H :    0.043644
  10 C :   -0.038873
  11 C :   -0.038873
  12 H :    0.040924
  13 H :    0.040924
  14 C :   -0.091491
  15 C :   -0.091491
  16 H :    0.042931
  17 H :    0.042931
  18 H :    0.044928
  19 H :    0.044928

  Mayer bond orders larger than 0.100000
B(  0-C ,  2-C ) :   1.3631 B(  0-C ,  5-C ) :   1.3652 B(  0-C , 11-C ) :   1.0664
B(  1-C ,  3-C ) :   1.3631 B(  1-C ,  4-C ) :   1.3652 B(  1-C , 10-C ) :   1.0664
B(  2-C ,  4-C ) :   1.4652 B(  2-C ,  6-H ) :   0.9614 B(  3-C ,  5-C ) :   1.4652
B(  3-C ,  7-H ) :   0.9614 B(  4-C ,  5-C ) :   0.1022 B(  4-C ,  8-H ) :   0.9595
B(  5-C ,  9-H ) :   0.9595 B( 10-C , 12-H ) :   0.9592 B( 10-C , 14-C ) :   1.9013
B( 11-C , 13-H ) :   0.9592 B( 11-C , 15-C ) :   1.9013 B( 14-C , 16-H ) :   0.9664
B( 14-C , 18-H ) :   0.9693 B( 15-C , 17-H ) :   0.9664 B( 15-C , 19-H ) :   0.9693

FINAL SINGLE POINT ENERGY      -382.050692182670

DIPOLE MOMENT
-------------

Method             : SCF
Type of density    : Electron Density
Multiplicity       :   1
Irrep              :   0
Energy             :  -382.0506921826702182 Eh
Relativity type    :
Basis              : AO
                                X                 Y                 Z
Electronic contribution:      0.000000004       0.000000000       0.000000000
Nuclear contribution   :      0.000000000       0.000000000       0.000000000
                        -----------------------------------------
Total Dipole Moment    :      0.000000004       0.000000000       0.000000000
                        -----------------------------------------
Magnitude (a.u.)       :      0.000000004
Magnitude (Debye)      :      0.000000011

Rotational constants in cm-1:             0.153923             0.022856             0.019901
Rotational constants in MHz :          4614.498453           685.205599           596.614480

                             ****ORCA TERMINATED NORMALLY****
TOTAL RUN TIME: 0 days 0 hours 0 minutes 13 seconds 311 msec
