                         Program Version 5.0.3 -  RELEASE  -
|  1> ! bt-PNO-EOM-CCSD NOCOSX def2-SVP/C STO-3G NormalPNO TightSCF
|  2> %Pal NProcs 4 end
|  3> %MaxCore 2500
|  4> %SCF
|  5>     AutoTRAH    True
|  6>     CNVDamp     False
|  7>     CNVZerner   False
|  8>     end
|  9> %mdci
| 10>     MaxIter     200
| 11>     NRoots      2
| 12>     DoTriplet   false
| 13>     STEOMSOC    false
| 14>     DoDbfilter  false
| 15>     end
| 16>
| 17> *xyz 0 1
| 18> C            -1.41525000     0.23022000     0.00000000
| 19> C             1.41525000    -0.23022000     0.00000000
| 20> C            -0.49513000     1.31446000     0.00000000
| 21> C             0.49513000    -1.31446000     0.00000000
| 22> C             0.88941000     1.09095000     0.00000000
| 23> C            -0.88941000    -1.09095000     0.00000000
| 24> H            -0.87955000     2.34373000     0.00000000
| 25> H             0.87955000    -2.34373000     0.00000000
| 26> H             1.57790000     1.94501000     0.00000000
| 27> H            -1.57790000    -1.94501000     0.00000000
| 28> C             2.88458000    -0.52109000     0.00000000
| 29> C            -2.88458000     0.52109000     0.00000000
| 30> H             3.14034000    -1.59196000     0.00000000
| 31> H            -3.14034000     1.59196000     0.00000000
| 32> C             3.88004000     0.38225000     0.00000000
| 33> C            -3.88004000    -0.38225000     0.00000000
| 34> H             3.69468000     1.46244000     0.00000000
| 35> H            -3.69468000    -1.46244000     0.00000000
| 36> H             4.93165000     0.07110000     0.00000000
| 37> H            -4.93165000    -0.07110000     0.00000000
| 38> **                         ****END OF INPUT****

CARTESIAN COORDINATES (ANGSTROEM)
---------------------------------
  C     -1.415250    0.230220    0.000000
  C      1.415250   -0.230220    0.000000
  C     -0.495130    1.314460    0.000000
  C      0.495130   -1.314460    0.000000
  C      0.889410    1.090950    0.000000
  C     -0.889410   -1.090950    0.000000
  H     -0.879550    2.343730    0.000000
  H      0.879550   -2.343730    0.000000
  H      1.577900    1.945010    0.000000
  H     -1.577900   -1.945010    0.000000
  C      2.884580   -0.521090    0.000000
  C     -2.884580    0.521090    0.000000
  H      3.140340   -1.591960    0.000000
  H     -3.140340    1.591960    0.000000
  C      3.880040    0.382250    0.000000
  C     -3.880040   -0.382250    0.000000
  H      3.694680    1.462440    0.000000
  H     -3.694680   -1.462440    0.000000
  H      4.931650    0.071100    0.000000
  H     -4.931650   -0.071100    0.000000

 Total Charge           Charge          ....    0
 Multiplicity           Mult            ....    1
 Number of Electrons    NEL             ....   70
 Basis Dimension        Dim             ....   60

ORBITAL ENERGIES
----------------

  NO   OCC          E(Eh)            E(eV)
   0   2.0000     -11.040588      -300.4297
   1   2.0000     -11.040525      -300.4280
   2   2.0000     -11.031589      -300.1848
   3   2.0000     -11.031588      -300.1848
   4   2.0000     -11.028952      -300.1130
   5   2.0000     -11.028822      -300.1095
   6   2.0000     -11.028608      -300.1037
   7   2.0000     -11.028585      -300.1031
   8   2.0000     -11.017480      -299.8009
   9   2.0000     -11.017480      -299.8009
  10   2.0000      -1.090298       -29.6685
  11   2.0000      -1.020253       -27.7625
  12   2.0000      -0.974925       -26.5291
  13   2.0000      -0.950302       -25.8590
  14   2.0000      -0.909634       -24.7524
  15   2.0000      -0.799882       -21.7659
  16   2.0000      -0.762826       -20.7575
  17   2.0000      -0.727630       -19.7998
  18   2.0000      -0.696776       -18.9602
  19   2.0000      -0.628052       -17.0902
  20   2.0000      -0.605677       -16.4813
  21   2.0000      -0.572941       -15.5905
  22   2.0000      -0.553603       -15.0643
  23   2.0000      -0.553165       -15.0524
  24   2.0000      -0.525359       -14.2958
  25   2.0000      -0.496698       -13.5158
  26   2.0000      -0.492526       -13.4023
  27   2.0000      -0.463730       -12.6187
  28   2.0000      -0.446430       -12.1480
  29   2.0000      -0.421653       -11.4738
  30   2.0000      -0.415621       -11.3096
  31   2.0000      -0.376963       -10.2577
  32   2.0000      -0.315127        -8.5750
  33   2.0000      -0.278364        -7.5747
  34   2.0000      -0.222189        -6.0461
  35   0.0000       0.198994         5.4149
  36   0.0000       0.268517         7.3067
  37   0.0000       0.308826         8.4036
  38   0.0000       0.397078        10.8050
  39   0.0000       0.521759        14.1978

MULLIKEN ATOMIC CHARGES
-----------------------
   0 C :    0.001816
   1 C :    0.001816
   2 C :   -0.059651
   3 C :   -0.059651
   4 C :   -0.060450
   5 C :   -0.060450
   6 H :    0.058705
   7 H :    0.058705
   8 H :    0.060600
   9 H :    0.060600
  10 C :   -0.055245
  11 C :   -0.055245
  12 H :    0.057635
  13 H :    0.057635
  14 C :   -0.123886
  15 C :   -0.123886
  16 H :    0.059018
  17 H :    0.059018
  18 H :    0.061456
  19 H :    0.061456
Sum of atomic charges:   -0.0000000

LOEWDIN ATOMIC CHARGES
----------------------
   0 C :    0.008730
   1 C :    0.008730
   2 C :   -0.031696
   3 C :   -0.031696
   4 C :   -0.032218
   5 C :   -0.032218
   6 H :    0.028087
   7 H :    0.028087
   8 H :    0.030066
   9 H :    0.030066
  10 C :   -0.022815
  11 C :   -0.022815
  12 H :    0.027052
  13 H :    0.027052
  14 C :   -0.069665
  15 C :   -0.069665
  16 H :    0.030564
  17 H :    0.030564
  18 H :    0.031896
  19 H :    0.031896

  Mayer bond orders larger than 0.100000
B(  0-C ,  1-C ) :   0.1063 B(  0-C ,  2-C ) :   1.3819 B(  0-C ,  5-C ) :   1.3830
B(  0-C , 11-C ) :   1.0412 B(  1-C ,  3-C ) :   1.3819 B(  1-C ,  4-C ) :   1.3830
B(  1-C , 10-C ) :   1.0412 B(  2-C ,  3-C ) :   0.1029 B(  2-C ,  4-C ) :   1.4572
B(  2-C ,  6-H ) :   0.9696 B(  3-C ,  5-C ) :   1.4572 B(  3-C ,  7-H ) :   0.9696
B(  4-C ,  5-C ) :   0.1040 B(  4-C ,  8-H ) :   0.9686 B(  5-C ,  9-H ) :   0.9686
B( 10-C , 12-H ) :   0.9677 B( 10-C , 14-C ) :   1.9305 B( 11-C , 13-H ) :   0.9677
B( 11-C , 15-C ) :   1.9305 B( 14-C , 16-H ) :   0.9738 B( 14-C , 18-H ) :   0.9758
B( 15-C , 17-H ) :   0.9738 B( 15-C , 19-H ) :   0.9758

E(0)                                       ...   -379.768963134
E(0)                                       ...   -379.768963134
E(CORR)(strong-pairs)                      ...     -0.725340359
E(CORR)(weak-pairs)                        ...     -0.004407290
E(CORR)(corrected)                         ...     -0.729747649
E(TOT)                                     ...   -380.498710783

-----------------------------------------------------------------------------
         ABSORPTION SPECTRUM VIA TRANSITION ELECTRIC DIPOLE MOMENTS
-----------------------------------------------------------------------------
State   Energy  Wavelength   fosc         T2         TX        TY        TZ
        (cm-1)    (nm)                  (au**2)     (au)      (au)      (au)
-----------------------------------------------------------------------------
   1   43847.4    228.1   0.000382330   0.00287   0.04109   0.03435   0.00000
   2   61115.3    163.6   1.016425256   5.47521   2.33991   0.00655   0.00000

FINAL SINGLE POINT ENERGY      -380.298927427435

DIPOLE MOMENT
-------------
                                X             Y             Z
Electronic contribution:      0.00572       0.01397       0.00000
Nuclear contribution   :      0.00000       0.00000       0.00000
                        -----------------------------------------
Total Dipole Moment    :      0.00572       0.01397       0.00000
                        -----------------------------------------
Magnitude (a.u.)       :      0.01509
Magnitude (Debye)      :      0.03836

Rotational constants in cm-1:     0.153923     0.022856     0.019901
Rotational constants in MHz :  4614.502149   685.206697   596.615374

                             ****ORCA TERMINATED NORMALLY****
TOTAL RUN TIME: 0 days 0 hours 3 minutes 0 seconds 249 msec
