                         Program Version 5.0.1 -  RELEASE  -
|  1> ! rks b3lyp sto-3g usesym freq
|  2>
|  3> * xyz 0 1
|  4>  C       -1.4152533224   0.2302217854   0.0000000000
|  5>  C        1.4152533224  -0.2302217854   0.0000000000
|  6>  C       -0.4951331558   1.3144608674   0.0000000000
|  7>  C        0.4951331558  -1.3144608674   0.0000000000
|  8>  C        0.8894090436   1.0909493743   0.0000000000
|  9>  C       -0.8894090436  -1.0909493743   0.0000000000
| 10>  H       -0.8795511985   2.3437343748   0.0000000000
| 11>  H        0.8795511985  -2.3437343748   0.0000000000
| 12>  H        1.5779041557   1.9450061275   0.0000000000
| 13>  H       -1.5779041557  -1.9450061275   0.0000000000
| 14>  C        2.8845844962  -0.5210893778   0.0000000000
| 15>  C       -2.8845844962   0.5210893778   0.0000000000
| 16>  H        3.1403356810  -1.5919605685   0.0000000000
| 17>  H       -3.1403356810   1.5919605685   0.0000000000
| 18>  C        3.8800428103   0.3822535424   0.0000000000
| 19>  C       -3.8800428103  -0.3822535424   0.0000000000
| 20>  H        3.6946765858   1.4624389570   0.0000000000
| 21>  H       -3.6946765858  -1.4624389570   0.0000000000
| 22>  H        4.9316453546   0.0711049543   0.0000000000
| 23>  H       -4.9316453546  -0.0711049543   0.0000000000
| 24> *
| 25> %pal
| 26>  nprocs 2
| 27> end
| 28>
| 29>                          ****END OF INPUT****

CARTESIAN COORDINATES (ANGSTROEM)
---------------------------------
  C     -1.415253    0.230222    0.000000
  C      1.415253   -0.230222    0.000000
  C     -0.495133    1.314461    0.000000
  C      0.495133   -1.314461    0.000000
  C      0.889409    1.090949    0.000000
  C     -0.889409   -1.090949    0.000000
  H     -0.879551    2.343734    0.000000
  H      0.879551   -2.343734    0.000000
  H      1.577904    1.945006    0.000000
  H     -1.577904   -1.945006    0.000000
  C      2.884584   -0.521089    0.000000
  C     -2.884584    0.521089    0.000000
  H      3.140336   -1.591961    0.000000
  H     -3.140336    1.591961    0.000000
  C      3.880043    0.382254    0.000000
  C     -3.880043   -0.382254    0.000000
  H      3.694677    1.462439    0.000000
  H     -3.694677   -1.462439    0.000000
  H      4.931645    0.071105    0.000000
  H     -4.931645   -0.071105    0.000000

 Total Charge           Charge          ....    0
 Multiplicity           Mult            ....    1
 Number of Electrons    NEL             ....   70
 Basis Dimension        Dim             ....   60

ORBITAL ENERGIES
----------------

  NO   OCC          E(Eh)            E(eV)    Irrep
   0   2.0000     -10.016661      -272.5672    1-Bu
   1   2.0000     -10.016613      -272.5659    1-Ag
   2   2.0000     -10.004551      -272.2377    2-Bu
   3   2.0000     -10.004550      -272.2376    2-Ag
   4   2.0000     -10.003446      -272.2076    3-Ag
   5   2.0000     -10.003444      -272.2076    3-Bu
   6   2.0000     -10.002795      -272.1899    4-Bu
   7   2.0000     -10.002652      -272.1860    4-Ag
   8   2.0000      -9.988711      -271.8067    5-Bu
   9   2.0000      -9.988711      -271.8067    5-Ag
  10   2.0000      -0.805855       -21.9284    6-Ag
  11   2.0000      -0.750309       -20.4170    6-Bu
  12   2.0000      -0.714245       -19.4356    7-Ag
  13   2.0000      -0.696312       -18.9476    7-Bu
  14   2.0000      -0.663686       -18.0598    8-Bu
  15   2.0000      -0.584901       -15.9160    8-Ag
  16   2.0000      -0.555532       -15.1168    9-Ag
  17   2.0000      -0.527807       -14.3623    9-Bu
  18   2.0000      -0.506333       -13.7780   10-Ag
  19   2.0000      -0.453992       -12.3538   11-Ag
  20   2.0000      -0.435587       -11.8529   10-Bu
  21   2.0000      -0.407390       -11.0856   11-Bu
  22   2.0000      -0.394085       -10.7236   12-Bu
  23   2.0000      -0.392326       -10.6757   12-Ag
  24   2.0000      -0.370818       -10.0905   13-Bu
  25   2.0000      -0.347318        -9.4510   14-Bu
  26   2.0000      -0.343406        -9.3445   13-Ag
  27   2.0000      -0.320890        -8.7319    1-Au
  28   2.0000      -0.307450        -8.3661   15-Bu
  29   2.0000      -0.289367        -7.8741   14-Ag
  30   2.0000      -0.283882        -7.7248   15-Ag
  31   2.0000      -0.259874        -7.0715    1-Bg
  32   2.0000      -0.208767        -5.6808    2-Au
  33   2.0000      -0.191582        -5.2132    2-Bg
  34   2.0000      -0.149394        -4.0652    3-Bg
  35   0.0000       0.041148         1.1197    3-Au
  36   0.0000       0.093750         2.5511    4-Au
  37   0.0000       0.114351         3.1117    4-Bg
  38   0.0000       0.185850         5.0572    5-Au
  39   0.0000       0.275982         7.5098    5-Bg

MULLIKEN ATOMIC CHARGES
-----------------------
   0 C :   -0.004552
   1 C :   -0.004552
   2 C :   -0.076425
   3 C :   -0.076425
   4 C :   -0.076783
   5 C :   -0.076783
   6 H :    0.077726
   7 H :    0.077726
   8 H :    0.079057
   9 H :    0.079057
  10 C :   -0.075911
  11 C :   -0.075911
  12 H :    0.076400
  13 H :    0.076400
  14 C :   -0.154405
  15 C :   -0.154405
  16 H :    0.075863
  17 H :    0.075863
  18 H :    0.079029
  19 H :    0.079029
Sum of atomic charges:    0.0000000

LOEWDIN ATOMIC CHARGES
----------------------
   0 C :    0.003611
   1 C :    0.003611
   2 C :   -0.043710
   3 C :   -0.043710
   4 C :   -0.043955
   5 C :   -0.043955
   6 H :    0.042024
   7 H :    0.042024
   8 H :    0.043559
   9 H :    0.043559
  10 C :   -0.038644
  11 C :   -0.038644
  12 H :    0.040829
  13 H :    0.040829
  14 C :   -0.091412
  15 C :   -0.091412
  16 H :    0.042853
  17 H :    0.042853
  18 H :    0.044845
  19 H :    0.044845

  Mayer bond orders larger than 0.100000
B(  0-C ,  2-C ) :   1.3631 B(  0-C ,  5-C ) :   1.3652 B(  0-C , 11-C ) :   1.0664
B(  1-C ,  3-C ) :   1.3631 B(  1-C ,  4-C ) :   1.3652 B(  1-C , 10-C ) :   1.0664
B(  2-C ,  4-C ) :   1.4652 B(  2-C ,  6-H ) :   0.9614 B(  3-C ,  5-C ) :   1.4652
B(  3-C ,  7-H ) :   0.9614 B(  4-C ,  5-C ) :   0.1022 B(  4-C ,  8-H ) :   0.9595
B(  5-C ,  9-H ) :   0.9595 B( 10-C , 12-H ) :   0.9592 B( 10-C , 14-C ) :   1.9013
B( 11-C , 13-H ) :   0.9592 B( 11-C , 15-C ) :   1.9013 B( 14-C , 16-H ) :   0.9664
B( 14-C , 18-H ) :   0.9693 B( 15-C , 17-H ) :   0.9664 B( 15-C , 19-H ) :   0.9693

FINAL SINGLE POINT ENERGY      -382.055108614160

DIPOLE MOMENT
-------------
                                X             Y             Z
Electronic contribution:     -0.00000      -0.00000       0.00000
Nuclear contribution   :      0.00000       0.00000       0.00000
                        -----------------------------------------
Total Dipole Moment    :     -0.00000      -0.00000       0.00000
                        -----------------------------------------
Magnitude (a.u.)       :      0.00000
Magnitude (Debye)      :      0.00000

VIBRATIONAL FREQUENCIES
-----------------------

Scaling factor for frequencies =  1.000000000  (already applied!)

   0:         0.00 cm**-1
   1:         0.00 cm**-1
   2:         0.00 cm**-1
   3:         0.00 cm**-1
   4:         0.00 cm**-1
   5:         0.00 cm**-1
   6:        45.66 cm**-1
   7:        78.63 cm**-1
   8:       150.50 cm**-1
   9:       180.08 cm**-1
  10:       264.92 cm**-1
  11:       300.71 cm**-1
  12:       407.72 cm**-1
  13:       423.71 cm**-1
  14:       468.20 cm**-1
  15:       487.66 cm**-1
  16:       578.55 cm**-1
  17:       656.89 cm**-1
  18:       673.30 cm**-1
  19:       706.40 cm**-1
  20:       734.92 cm**-1
  21:       809.69 cm**-1
  22:       862.11 cm**-1
  23:       892.45 cm**-1
  24:       895.23 cm**-1
  25:       979.16 cm**-1
  26:       979.28 cm**-1
  27:      1016.68 cm**-1
  28:      1035.18 cm**-1
  29:      1073.47 cm**-1
  30:      1101.53 cm**-1
  31:      1106.25 cm**-1
  32:      1106.39 cm**-1
  33:      1110.14 cm**-1
  34:      1203.16 cm**-1
  35:      1260.29 cm**-1
  36:      1284.00 cm**-1
  37:      1295.87 cm**-1
  38:      1349.73 cm**-1
  39:      1397.98 cm**-1
  40:      1421.49 cm**-1
  41:      1426.84 cm**-1
  42:      1514.00 cm**-1
  43:      1564.86 cm**-1
  44:      1574.55 cm**-1
  45:      1639.04 cm**-1
  46:      1690.25 cm**-1
  47:      1737.84 cm**-1
  48:      1814.26 cm**-1
  49:      1815.24 cm**-1
  50:      3393.77 cm**-1
  51:      3394.38 cm**-1
  52:      3432.49 cm**-1
  53:      3432.49 cm**-1
  54:      3447.31 cm**-1
  55:      3450.87 cm**-1
  56:      3470.69 cm**-1
  57:      3473.86 cm**-1
  58:      3545.99 cm**-1
  59:      3546.00 cm**-1

IR SPECTRUM
-----------

 Mode   freq       eps      Int      T**2         TX        TY        TZ
       cm**-1   L/(mol*cm) km/mol    a.u.
----------------------------------------------------------------------------
  6:     45.66   0.000006    0.03  0.000039  ( 0.000000  0.000000  0.006256)
  7:     78.63   0.000000    0.00  0.000000  ( 0.000000  0.000000  0.000000)
  8:    150.50   0.000071    0.36  0.000147  ( 0.000000 -0.000000  0.012121)
  9:    180.08   0.000052    0.26  0.000090  ( 0.008755  0.003626  0.000000)
 10:    264.92   0.000000    0.00  0.000000  ( 0.000000  0.000000  0.000000)
 11:    300.71   0.000000    0.00  0.000000  ( 0.000000  0.000000 -0.000000)
 12:    407.72   0.000000    0.00  0.000000  ( 0.000000  0.000000  0.000000)
 13:    423.71   0.000021    0.10  0.000015  ( 0.000000 -0.000000  0.003907)
 14:    468.20   0.001213    6.13  0.000808  ( 0.000000 -0.000000  0.028428)
 15:    487.66   0.000385    1.95  0.000247  (-0.015616 -0.001633  0.000000)
 16:    578.55   0.000000    0.00  0.000000  (-0.000000 -0.000000  0.000000)
 17:    656.89   0.000000    0.00  0.000000  ( 0.000000  0.000000 -0.000000)
 18:    673.30   0.000000    0.00  0.000000  (-0.000000 -0.000000 -0.000000)
 19:    706.40   0.000103    0.52  0.000045  (-0.000000  0.000000 -0.006730)
 20:    734.92   0.000828    4.19  0.000352  (-0.018691 -0.001547  0.000000)
 21:    809.69   0.000000    0.00  0.000000  (-0.000000  0.000000 -0.000000)
 22:    862.11   0.000000    0.00  0.000000  (-0.000000 -0.000000 -0.000000)
 23:    892.45   0.000000    0.00  0.000000  ( 0.000000 -0.000000  0.000000)
 24:    895.23   0.005321   26.89  0.001855  (-0.000000  0.000000 -0.043069)
 25:    979.16   0.000000    0.00  0.000000  (-0.000000 -0.000000  0.000000)
 26:    979.28   0.007275   36.76  0.002318  ( 0.000000 -0.000000 -0.048149)
 27:   1016.68   0.000000    0.00  0.000000  ( 0.000000 -0.000000 -0.000000)
 28:   1035.18   0.000001    0.01  0.000000  (-0.000000  0.000000 -0.000588)
 29:   1073.47   0.000106    0.54  0.000031  (-0.005517 -0.000719 -0.000000)
 30:   1101.53   0.001739    8.79  0.000493  (-0.022139  0.001615  0.000000)
 31:   1106.25   0.002667   13.48  0.000752  (-0.000000  0.000000 -0.027427)
 32:   1106.39   0.000000    0.00  0.000000  ( 0.000000 -0.000000 -0.000000)
 33:   1110.14   0.000000    0.00  0.000000  (-0.000000  0.000000 -0.000000)
 34:   1203.16   0.000294    1.49  0.000076  (-0.007751 -0.004024 -0.000000)
 35:   1260.29   0.000000    0.00  0.000000  ( 0.000000 -0.000000  0.000000)
 36:   1284.00   0.000012    0.06  0.000003  ( 0.001404 -0.001005  0.000000)
 37:   1295.87   0.000000    0.00  0.000000  ( 0.000000  0.000000  0.000000)
 38:   1349.73   0.001769    8.94  0.000409  ( 0.020112 -0.002100 -0.000000)
 39:   1397.98   0.000000    0.00  0.000000  ( 0.000000  0.000000  0.000000)
 40:   1421.49   0.001700    8.59  0.000373  (-0.018946 -0.003767 -0.000000)
 41:   1426.84   0.000000    0.00  0.000000  ( 0.000000 -0.000000  0.000000)
 42:   1514.00   0.003691   18.65  0.000761  ( 0.007049 -0.026666 -0.000000)
 43:   1564.86   0.000000    0.00  0.000000  (-0.000000  0.000000  0.000000)
 44:   1574.55   0.000126    0.64  0.000025  ( 0.003710 -0.003343  0.000000)
 45:   1639.04   0.002998   15.15  0.000571  (-0.023837 -0.001619  0.000000)
 46:   1690.25   0.000000    0.00  0.000000  (-0.000000  0.000000 -0.000000)
 47:   1737.84   0.000000    0.00  0.000000  ( 0.000000 -0.000000  0.000000)
 48:   1814.26   0.000000    0.00  0.000000  (-0.000000  0.000000  0.000000)
 49:   1815.24   0.000290    1.47  0.000050  (-0.000253  0.007061  0.000000)
 50:   3393.77   0.019172   96.88  0.001763  (-0.040830 -0.009786  0.000000)
 51:   3394.38   0.000000    0.00  0.000000  (-0.000000 -0.000000  0.000000)
 52:   3432.49   0.000785    3.97  0.000071  (-0.008316 -0.001481 -0.000000)
 53:   3432.49   0.000000    0.00  0.000000  (-0.000012 -0.000002 -0.000000)
 54:   3447.31   0.000242    1.22  0.000022  ( 0.000621 -0.004639 -0.000000)
 55:   3450.87   0.000000    0.00  0.000000  ( 0.000000 -0.000000  0.000000)
 56:   3470.69   0.001109    5.61  0.000100  (-0.002835 -0.009576  0.000000)
 57:   3473.86   0.000000    0.00  0.000000  ( 0.000000  0.000000 -0.000000)
 58:   3545.99   0.000009    0.04  0.000001  ( 0.000862  0.000154 -0.000000)
 59:   3546.00   0.000000    0.00  0.000000  ( 0.000000  0.000000  0.000000)

--------------------------
THERMOCHEMISTRY AT 298.15K
--------------------------

Temperature         ... 298.15 K
Pressure            ... 1.00 atm
Total Mass          ... 130.19 AMU

Throughout the following assumptions are being made:
  (1) The electronic state is orbitally nondegenerate
  (2) There are no thermally accessible electronically excited states
  (3) Hindered rotations indicated by low frequency modes are not
      treated as such but are treated as vibrations and this may
      cause some error
  (4) All equations used are the standard statistical mechanics
      equations for an ideal gas
  (5) All vibrations are strictly harmonic

freq.      45.66  E(vib)   ...       0.53
freq.      78.63  E(vib)   ...       0.49
freq.     150.50  E(vib)   ...       0.40
freq.     180.08  E(vib)   ...       0.37
freq.     264.92  E(vib)   ...       0.29
freq.     300.71  E(vib)   ...       0.26
freq.     407.72  E(vib)   ...       0.19
freq.     423.71  E(vib)   ...       0.18
freq.     468.20  E(vib)   ...       0.16
freq.     487.66  E(vib)   ...       0.15
freq.     578.55  E(vib)   ...       0.11
freq.     656.89  E(vib)   ...       0.08
freq.     673.30  E(vib)   ...       0.08
freq.     706.40  E(vib)   ...       0.07
freq.     734.92  E(vib)   ...       0.06
freq.     809.69  E(vib)   ...       0.05
freq.     862.11  E(vib)   ...       0.04
freq.     892.45  E(vib)   ...       0.03
freq.     895.23  E(vib)   ...       0.03
freq.     979.16  E(vib)   ...       0.03
freq.     979.28  E(vib)   ...       0.03
freq.    1016.68  E(vib)   ...       0.02
freq.    1035.18  E(vib)   ...       0.02
freq.    1073.47  E(vib)   ...       0.02
freq.    1101.53  E(vib)   ...       0.02
freq.    1106.25  E(vib)   ...       0.02
freq.    1106.39  E(vib)   ...       0.02
freq.    1110.14  E(vib)   ...       0.02
freq.    1203.16  E(vib)   ...       0.01
freq.    1260.29  E(vib)   ...       0.01
freq.    1284.00  E(vib)   ...       0.01
freq.    1295.87  E(vib)   ...       0.01
freq.    1349.73  E(vib)   ...       0.01
freq.    1397.98  E(vib)   ...       0.00
freq.    1421.49  E(vib)   ...       0.00
freq.    1426.84  E(vib)   ...       0.00
freq.    1514.00  E(vib)   ...       0.00
freq.    1564.86  E(vib)   ...       0.00
freq.    1574.55  E(vib)   ...       0.00
freq.    1639.04  E(vib)   ...       0.00
freq.    1690.25  E(vib)   ...       0.00
freq.    1737.84  E(vib)   ...       0.00
freq.    1814.26  E(vib)   ...       0.00
freq.    1815.24  E(vib)   ...       0.00
freq.    3393.77  E(vib)   ...       0.00
freq.    3394.38  E(vib)   ...       0.00
freq.    3432.49  E(vib)   ...       0.00
freq.    3432.49  E(vib)   ...       0.00
freq.    3447.31  E(vib)   ...       0.00
freq.    3450.87  E(vib)   ...       0.00
freq.    3470.69  E(vib)   ...       0.00
freq.    3473.86  E(vib)   ...       0.00
freq.    3545.99  E(vib)   ...       0.00
freq.    3546.00  E(vib)   ...       0.00

------------
INNER ENERGY
------------

The inner energy is: U= E(el) + E(ZPE) + E(vib) + E(rot) + E(trans)
    E(el)   - is the total energy from the electronic structure calculation
              = E(kin-el) + E(nuc-el) + E(el-el) + E(nuc-nuc)
    E(ZPE)  - the the zero temperature vibrational energy from the frequency calculation
    E(vib)  - the the finite temperature correction to E(ZPE) due to population
              of excited vibrational states
    E(rot)  - is the rotational thermal energy
    E(trans)- is the translational thermal energy

Summary of contributions to the inner energy U:
Electronic energy                ...   -382.05510861 Eh
Zero point energy                ...      0.17701962 Eh     111.08 kcal/mol
Thermal vibrational correction   ...      0.00607317 Eh       3.81 kcal/mol
Thermal rotational correction    ...      0.00141627 Eh       0.89 kcal/mol
Thermal translational correction ...      0.00141627 Eh       0.89 kcal/mol
-----------------------------------------------------------------------
Total thermal energy                   -381.86918328 Eh

Summary of corrections to the electronic energy:
(perhaps to be used in another calculation)
Total thermal correction                  0.00890572 Eh       5.59 kcal/mol
Non-thermal (ZPE) correction              0.17701962 Eh     111.08 kcal/mol
-----------------------------------------------------------------------
Total correction                          0.18592533 Eh     116.67 kcal/mol

--------
ENTHALPY
--------

The enthalpy is H = U + kB*T
                kB is Boltzmann's constant
Total free energy                 ...   -381.86918328 Eh
Thermal Enthalpy correction       ...      0.00094421 Eh       0.59 kcal/mol
-----------------------------------------------------------------------
Total Enthalpy                    ...   -381.86823907 Eh

Note: Rotational entropy computed according to Herzberg
Infrared and Raman Spectra, Chapter V,1, Van Nostrand Reinhold, 1945
Point Group:  C2h, Symmetry Number:   2
Rotational constants in cm-1:     0.153923     0.022856     0.019901

Vibrational entropy computed according to the QRRHO of S. Grimme
Chem.Eur.J. 2012 18 9955

-------
ENTROPY
-------

The entropy contributions are T*S = T*(S(el)+S(vib)+S(rot)+S(trans))
     S(el)   - electronic entropy
     S(vib)  - vibrational entropy
     S(rot)  - rotational entropy
     S(trans)- translational entropy
The entropies will be listed as multiplied by the temperature to get
units of energy

Electronic entropy                ...      0.00000000 Eh      0.00 kcal/mol
Vibrational entropy               ...      0.01027032 Eh      6.44 kcal/mol
Rotational entropy                ...      0.01337276 Eh      8.39 kcal/mol
Translational entropy             ...      0.01924489 Eh     12.08 kcal/mol
-----------------------------------------------------------------------
Final entropy term                ...      0.04288798 Eh     26.91 kcal/mol

In case the symmetry of your molecule has not been determined correctly
or in case you have a reason to use a different symmetry number we print
out the resulting rotational entropy values for sn=1,12 :
 --------------------------------------------------------
|  sn= 1 | S(rot)=       0.01402722 Eh      8.80 kcal/mol|
|  sn= 2 | S(rot)=       0.01337276 Eh      8.39 kcal/mol|
|  sn= 3 | S(rot)=       0.01298993 Eh      8.15 kcal/mol|
|  sn= 4 | S(rot)=       0.01271831 Eh      7.98 kcal/mol|
|  sn= 5 | S(rot)=       0.01250762 Eh      7.85 kcal/mol|
|  sn= 6 | S(rot)=       0.01233548 Eh      7.74 kcal/mol|
|  sn= 7 | S(rot)=       0.01218993 Eh      7.65 kcal/mol|
|  sn= 8 | S(rot)=       0.01206385 Eh      7.57 kcal/mol|
|  sn= 9 | S(rot)=       0.01195264 Eh      7.50 kcal/mol|
|  sn=10 | S(rot)=       0.01185316 Eh      7.44 kcal/mol|
|  sn=11 | S(rot)=       0.01176317 Eh      7.38 kcal/mol|
|  sn=12 | S(rot)=       0.01168102 Eh      7.33 kcal/mol|
 --------------------------------------------------------

                             ****ORCA TERMINATED NORMALLY****
TOTAL RUN TIME: 0 days 0 hours 2 minutes 18 seconds 241 msec
