                         Program Version 6.0.1  -  RELEASE   -
|  1> !  MP3 sto-3g
|  2>
|  3> *xyz 0 1
|  4>   O      1.784914    1.262422    0.511985
|  5>   H      2.648237    1.072929    0.131631
|  6>   H      1.183168    1.256816   -0.238835
|  7> *
|  8> %pal
|  9>  nprocs 4
| 10> end
| 11> %MaxCore 700
| 12>
| 13>                          ****END OF INPUT****

CARTESIAN COORDINATES (ANGSTROEM)
---------------------------------
  O      1.784914    1.262422    0.511985
  H      2.648237    1.072929    0.131631
  H      1.183168    1.256816   -0.238835

 Total Charge           Charge          ....    0
 Multiplicity           Mult            ....    1
 Number of Electrons    NEL             ....   10
 Basis Dimension        Dim             ....    7

ORBITAL ENERGIES
----------------

  NO   OCC          E(Eh)            E(eV)
   0   2.0000     -20.242269      -550.8201
   1   2.0000      -1.265784       -34.4437
   2   2.0000      -0.615347       -16.7445
   3   2.0000      -0.452279       -12.3071
   4   2.0000      -0.390877       -10.6363
   5   0.0000       0.600580        16.3426
   6   0.0000       0.736585        20.0435

MULLIKEN ATOMIC CHARGES
-----------------------
   0 O :   -0.361722
   1 H :    0.180857
   2 H :    0.180866
Sum of atomic charges:    0.0000000

LOEWDIN ATOMIC CHARGES
----------------------
   0 O :   -0.250700
   1 H :    0.125348
   2 H :    0.125352

  Mayer bond orders larger than 0.100000
B(  0-O ,  1-H ) :   0.9549 B(  0-O ,  2-H ) :   0.9549

FINAL SINGLE POINT ENERGY       -75.009120940914

DIPOLE MOMENT
-------------

Method             : SCF
Type of density    : Electron Density
Multiplicity       :   1
Irrep              :   0
Energy             :   -74.9635742400831901 Eh
Relativity type    :
Basis              : AO
                                X                 Y                 Z
Electronic contribution:     -0.067486994       0.050326673       0.291778607
Nuclear contribution   :      0.217726398      -0.162392728      -0.941544711
                        -----------------------------------------
Total Dipole Moment    :      0.150239405      -0.112066055      -0.649766104
                        -----------------------------------------
Magnitude (a.u.)       :      0.676259321
Magnitude (Debye)      :      1.718914591

Rotational constants in cm-1:            27.172637            14.432751             9.426085
Rotational constants in MHz :        814615.168427        432682.991980        282586.906303

                             ****ORCA TERMINATED NORMALLY****
TOTAL RUN TIME: 0 days 0 hours 0 minutes 5 seconds 628 msec
