                         Program Version 5.0.3 -  RELEASE  -
|  1> ! HF NOCOSX NORI STO-3G TightSCF SP CPCM
|  2> %Pal NProcs 1 end
|  3> %MaxCore 500
|  4> %SCF
|  5>     AutoTRAH    True
|  6>     CNVDamp     False
|  7>     CNVZerner   False
|  8>     end
|  9> %cpcm
| 10>     smd         True
| 11>     smdsolvent  "Toluene"
| 12>     end
| 13> *xyz 0 1
| 14> O            -0.00000000    -0.11915900     0.00000000
| 15> H            -0.79064900     0.47663700     0.00000000
| 16> H             0.79064900     0.47663700    -0.00000000
| 17> *
| 18>
| 19>                          ****END OF INPUT****

CARTESIAN COORDINATES (ANGSTROEM)
---------------------------------
  O     -0.000000   -0.119159    0.000000
  H     -0.790649    0.476637    0.000000
  H      0.790649    0.476637   -0.000000

 Total Charge           Charge          ....    0
 Multiplicity           Mult            ....    1
 Number of Electrons    NEL             ....   10
 Basis Dimension        Dim             ....    7

ORBITAL ENERGIES
----------------

  NO   OCC          E(Eh)            E(eV)
   0   2.0000     -20.237056      -550.6783
   1   2.0000      -1.246411       -33.9166
   2   2.0000      -0.598689       -16.2912
   3   2.0000      -0.442943       -12.0531
   4   2.0000      -0.384938       -10.4747
   5   0.0000       0.577514        15.7150
   6   0.0000       0.714323        19.4377

MULLIKEN ATOMIC CHARGES
-----------------------
   0 O :   -0.349626
   1 H :    0.174813
   2 H :    0.174813
Sum of atomic charges:   -0.0000000

LOEWDIN ATOMIC CHARGES
----------------------
   0 O :   -0.246751
   1 H :    0.123375
   2 H :    0.123375

  Mayer bond orders larger than 0.100000
B(  0-O ,  1-H ) :   0.9568 B(  0-O ,  2-H ) :   0.9568

FINAL SINGLE POINT ENERGY       -74.967638760929

DIPOLE MOMENT
-------------
                                X             Y             Z
Electronic contribution:      0.00000      -0.32060      -0.00000
Nuclear contribution   :      0.00000       0.99183       0.00000
                        -----------------------------------------
Total Dipole Moment    :      0.00000       0.67123      -0.00000
                        -----------------------------------------
Magnitude (a.u.)       :      0.67123
Magnitude (Debye)      :      1.70614

Rotational constants in cm-1:    26.524832    13.376390     8.892121
Rotational constants in MHz : 795194.445665 401014.082600 266579.081809

                             ****ORCA TERMINATED NORMALLY****
TOTAL RUN TIME: 0 days 0 hours 0 minutes 0 seconds 593 msec
