                         Program Version 6.0.1  -  RELEASE   -
|  1> ! HF NOCOSX NORI STO-3G TightSCF SP CPCM
|  2> %Pal NProcs 1 end
|  3> %MaxCore 500
|  4> %SCF
|  5>     AutoTRAH    True
|  6>     CNVDamp     False
|  7>     CNVZerner   False
|  8>     end
|  9> %cpcm
| 10>     smd         True
| 11>     smdsolvent  "Toluene"
| 12>     end
| 13> *xyz 0 1
| 14> O            -0.00000000    -0.11915900     0.00000000
| 15> H            -0.79064900     0.47663700     0.00000000
| 16> H             0.79064900     0.47663700    -0.00000000
| 17> *
| 18>
| 19>                          ****END OF INPUT****

CARTESIAN COORDINATES (ANGSTROEM)
---------------------------------
  O     -0.000000   -0.119159    0.000000
  H     -0.790649    0.476637    0.000000
  H      0.790649    0.476637   -0.000000

 Total Charge           Charge          ....    0
 Multiplicity           Mult            ....    1
 Number of Electrons    NEL             ....   10
 Basis Dimension        Dim             ....    7

ORBITAL ENERGIES
----------------

  NO   OCC          E(Eh)            E(eV)
   0   2.0000     -20.236889      -550.6737
   1   2.0000      -1.246295       -33.9134
   2   2.0000      -0.598557       -16.2876
   3   2.0000      -0.442833       -12.0501
   4   2.0000      -0.384826       -10.4717
   5   0.0000       0.577677        15.7194
   6   0.0000       0.714484        19.4421

MULLIKEN ATOMIC CHARGES
-----------------------
   0 O :   -0.349787
   1 H :    0.174893
   2 H :    0.174893
Sum of atomic charges:   -0.0000000

LOEWDIN ATOMIC CHARGES
----------------------
   0 O :   -0.246887
   1 H :    0.123444
   2 H :    0.123444

  Mayer bond orders larger than 0.100000
B(  0-O ,  1-H ) :   0.9568 B(  0-O ,  2-H ) :   0.9568

FINAL SINGLE POINT ENERGY       -74.967666633980

DIPOLE MOMENT
-------------

Method             : SCF
Type of density    : Electron Density
Multiplicity       :   1
Irrep              :   0
Energy             :   -74.9676666339802438 Eh
Relativity type    :
Basis              : AO
                                X                 Y                 Z
Electronic contribution:     -0.000000000      -0.320416869      -0.000000000
Nuclear contribution   :      0.000000000       0.991834276       0.000000000
                        -----------------------------------------
Total Dipole Moment    :     -0.000000000       0.671417407      -0.000000000
                        -----------------------------------------
Magnitude (a.u.)       :      0.671417407
Magnitude (Debye)      :      1.706607421

Rotational constants in cm-1:            26.524832            13.376390             8.892121
Rotational constants in MHz :        795194.445665        401014.082600        266579.081809

                             ****ORCA TERMINATED NORMALLY****
TOTAL RUN TIME: 0 days 0 hours 0 minutes 0 seconds 475 msec
