                         Program Version 6.0.1  -  RELEASE   -
|  1> ! HF NOCOSX NORI STO-3G TightSCF SP CPCM
|  2> %Pal NProcs 1 end
|  3> %MaxCore 500
|  4> %SCF
|  5>     AutoTRAH    True
|  6>     CNVDamp     False
|  7>     CNVZerner   False
|  8>     end
|  9> %cpcm
| 10>     epsilon     2.3741
| 11>     refrac      1.497
| 12>     fepstype    COSMO
| 13>     end
| 14> *xyz 0 1
| 15> O            -0.00000000    -0.11915900     0.00000000
| 16> H            -0.79064900     0.47663700     0.00000000
| 17> H             0.79064900     0.47663700    -0.00000000
| 18> *
| 19>
| 20>                          ****END OF INPUT****

CARTESIAN COORDINATES (ANGSTROEM)
---------------------------------
  O     -0.000000   -0.119159    0.000000
  H     -0.790649    0.476637    0.000000
  H      0.790649    0.476637   -0.000000

 Total Charge           Charge          ....    0
 Multiplicity           Mult            ....    1
 Number of Electrons    NEL             ....   10
 Basis Dimension        Dim             ....    7

ORBITAL ENERGIES
----------------

  NO   OCC          E(Eh)            E(eV)
   0   2.0000     -20.236983      -550.6763
   1   2.0000      -1.247088       -33.9350
   2   2.0000      -0.599247       -16.3063
   3   2.0000      -0.444391       -12.0925
   4   2.0000      -0.386127       -10.5070
   5   0.0000       0.577618        15.7178
   6   0.0000       0.714002        19.4290

MULLIKEN ATOMIC CHARGES
-----------------------
   0 O :   -0.353198
   1 H :    0.176599
   2 H :    0.176599
Sum of atomic charges:   -0.0000000

LOEWDIN ATOMIC CHARGES
----------------------
   0 O :   -0.249802
   1 H :    0.124901
   2 H :    0.124901

  Mayer bond orders larger than 0.100000
B(  0-O ,  1-H ) :   0.9562 B(  0-O ,  2-H ) :   0.9562

FINAL SINGLE POINT ENERGY       -74.967076650145

DIPOLE MOMENT
-------------

Method             : SCF
Type of density    : Electron Density
Multiplicity       :   1
Irrep              :   0
Energy             :   -74.9670766501449037 Eh
Relativity type    :
Basis              : AO
                                X                 Y                 Z
Electronic contribution:     -0.000000000      -0.316162234      -0.000000000
Nuclear contribution   :      0.000000000       0.991834276       0.000000000
                        -----------------------------------------
Total Dipole Moment    :     -0.000000000       0.675672042      -0.000000000
                        -----------------------------------------
Magnitude (a.u.)       :      0.675672042
Magnitude (Debye)      :      1.717421844

Rotational constants in cm-1:            26.524832            13.376390             8.892121
Rotational constants in MHz :        795194.445665        401014.082600        266579.081809

                             ****ORCA TERMINATED NORMALLY****
TOTAL RUN TIME: 0 days 0 hours 0 minutes 0 seconds 479 msec
