                         Program Version 5.0.3 -  RELEASE  -
|  1> ! HF NOCOSX NORI STO-3G TightSCF SP CPCM
|  2> %Pal NProcs 1 end
|  3> %MaxCore 500
|  4> %SCF
|  5>     AutoTRAH    True
|  6>     CNVDamp     False
|  7>     CNVZerner   False
|  8>     end
|  9> %cpcm
| 10>     epsilon     2.3741
| 11>     refrac      1.497
| 12>     fepstype    CPCM
| 13>     end
| 14> *xyz 0 1
| 15> O            -0.00000000    -0.11915900     0.00000000
| 16> H            -0.79064900     0.47663700     0.00000000
| 17> H             0.79064900     0.47663700    -0.00000000
| 18> *
| 19>
| 20>                          ****END OF INPUT****

CARTESIAN COORDINATES (ANGSTROEM)
---------------------------------
  O     -0.000000   -0.119159    0.000000
  H     -0.790649    0.476637    0.000000
  H      0.790649    0.476637   -0.000000

 Total Charge           Charge          ....    0
 Multiplicity           Mult            ....    1
 Number of Electrons    NEL             ....   10
 Basis Dimension        Dim             ....    7

ORBITAL ENERGIES
----------------

  NO   OCC          E(Eh)            E(eV)
   0   2.0000     -20.235523      -550.6366
   1   2.0000      -1.246328       -33.9143
   2   2.0000      -0.598397       -16.2832
   3   2.0000      -0.444161       -12.0862
   4   2.0000      -0.385674       -10.4947
   5   0.0000       0.579105        15.7583
   6   0.0000       0.715175        19.4609

MULLIKEN ATOMIC CHARGES
-----------------------
   0 O :   -0.356215
   1 H :    0.178108
   2 H :    0.178108
Sum of atomic charges:   -0.0000000

LOEWDIN ATOMIC CHARGES
----------------------
   0 O :   -0.252377
   1 H :    0.126189
   2 H :    0.126189

  Mayer bond orders larger than 0.100000
B(  0-O ,  1-H ) :   0.9558 B(  0-O ,  2-H ) :   0.9558

FINAL SINGLE POINT ENERGY       -74.967669815550

DIPOLE MOMENT
-------------
                                X             Y             Z
Electronic contribution:     -0.00000      -0.31246      -0.00000
Nuclear contribution   :      0.00000       0.99183       0.00000
                        -----------------------------------------
Total Dipole Moment    :     -0.00000       0.67938      -0.00000
                        -----------------------------------------
Magnitude (a.u.)       :      0.67938
Magnitude (Debye)      :      1.72684

Rotational constants in cm-1:    26.524832    13.376390     8.892121
Rotational constants in MHz : 795194.445665 401014.082600 266579.081809

                             ****ORCA TERMINATED NORMALLY****
TOTAL RUN TIME: 0 days 0 hours 0 minutes 10 seconds 10 msec
