                         Program Version 6.0.1  -  RELEASE   -
|  1> !  b3lyp sto-3g usesym sp
|  2>
|  3> * xyz 0 1
|  4> C            -1.41525000     0.23022000     0.00000000
|  5> C             1.41525000    -0.23022000     0.00000000
|  6> C            -0.49513000     1.31446000     0.00000000
|  7> C             0.49513000    -1.31446000     0.00000000
|  8> C             0.88941000     1.09095000     0.00000000
|  9> C            -0.88941000    -1.09095000     0.00000000
| 10> H            -0.87955000     2.34373000     0.00000000
| 11> H             0.87955000    -2.34373000     0.00000000
| 12> H             1.57790000     1.94501000     0.00000000
| 13> H            -1.57790000    -1.94501000     0.00000000
| 14> C             2.88458000    -0.52109000     0.00000000
| 15> C            -2.88458000     0.52109000     0.00000000
| 16> H             3.14034000    -1.59196000     0.00000000
| 17> H            -3.14034000     1.59196000     0.00000000
| 18> C             3.88004000     0.38225000     0.00000000
| 19> C            -3.88004000    -0.38225000     0.00000000
| 20> H             3.69468000     1.46244000     0.00000000
| 21> H            -3.69468000    -1.46244000     0.00000000
| 22> H             4.93164000     0.07111000     0.00000000
| 23> H            -4.93164000    -0.07111000     0.00000000
| 24> *
| 25> %pal
| 26>  nprocs 4
| 27> end
| 28> %MaxCore 700
| 29> %eprnmr
| 30>   nuclei = all C { shift, ssall};
| 31>   nuclei = all H { shift, ssall};
| 32> end
| 33>
| 34>                          ****END OF INPUT****

CARTESIAN COORDINATES (ANGSTROEM)
---------------------------------
  C     -1.415250    0.230220    0.000000
  C      1.415250   -0.230220    0.000000
  C     -0.495130    1.314460    0.000000
  C      0.495130   -1.314460    0.000000
  C      0.889410    1.090950    0.000000
  C     -0.889410   -1.090950    0.000000
  H     -0.879550    2.343730    0.000000
  H      0.879550   -2.343730    0.000000
  H      1.577900    1.945010    0.000000
  H     -1.577900   -1.945010    0.000000
  C      2.884580   -0.521090    0.000000
  C     -2.884580    0.521090    0.000000
  H      3.140340   -1.591960    0.000000
  H     -3.140340    1.591960    0.000000
  C      3.880040    0.382250    0.000000
  C     -3.880040   -0.382250    0.000000
  H      3.694680    1.462440    0.000000
  H     -3.694680   -1.462440    0.000000
  H      4.931640    0.071110    0.000000
  H     -4.931640   -0.071110    0.000000

 Total Charge           Charge          ....    0
 Multiplicity           Mult            ....    1
 Number of Electrons    NEL             ....   70
 Basis Dimension        Dim             ....   60

ORBITAL ENERGIES
----------------

  NO   OCC          E(Eh)            E(eV)    Irrep
   0   2.0000     -10.017320      -272.5851    1-Bu
   1   2.0000     -10.017272      -272.5838    1-Ag
   2   2.0000     -10.005038      -272.2509    2-Bu
   3   2.0000     -10.005037      -272.2509    2-Ag
   4   2.0000     -10.003437      -272.2074    3-Ag
   5   2.0000     -10.003435      -272.2073    3-Bu
   6   2.0000     -10.002809      -272.1903    4-Bu
   7   2.0000     -10.002665      -272.1864    4-Ag
   8   2.0000      -9.987938      -271.7856    5-Bu
   9   2.0000      -9.987938      -271.7856    5-Ag
  10   2.0000      -0.806051       -21.9338    6-Ag
  11   2.0000      -0.750468       -20.4213    6-Bu
  12   2.0000      -0.714220       -19.4349    7-Ag
  13   2.0000      -0.696394       -18.9498    7-Bu
  14   2.0000      -0.663706       -18.0604    8-Bu
  15   2.0000      -0.584985       -15.9182    8-Ag
  16   2.0000      -0.555658       -15.1202    9-Ag
  17   2.0000      -0.527826       -14.3629    9-Bu
  18   2.0000      -0.506379       -13.7793   10-Ag
  19   2.0000      -0.454036       -12.3549   11-Ag
  20   2.0000      -0.435636       -11.8542   10-Bu
  21   2.0000      -0.407445       -11.0871   11-Bu
  22   2.0000      -0.394113       -10.7244   12-Bu
  23   2.0000      -0.392221       -10.6729   12-Ag
  24   2.0000      -0.370890       -10.0924   13-Bu
  25   2.0000      -0.347381        -9.4527   14-Bu
  26   2.0000      -0.343354        -9.3431   13-Ag
  27   2.0000      -0.321075        -8.7369    1-Au
  28   2.0000      -0.307512        -8.3678   15-Bu
  29   2.0000      -0.289515        -7.8781   14-Ag
  30   2.0000      -0.284028        -7.7288   15-Ag
  31   2.0000      -0.260030        -7.0758    1-Bg
  32   2.0000      -0.208725        -5.6797    2-Au
  33   2.0000      -0.191654        -5.2152    2-Bg
  34   2.0000      -0.149434        -4.0663    3-Bg
  35   0.0000       0.041101         1.1184    3-Au
  36   0.0000       0.093672         2.5490    4-Au
  37   0.0000       0.114388         3.1127    4-Bg
  38   0.0000       0.185692         5.0529    5-Au
  39   0.0000       0.275789         7.5046    5-Bg

MULLIKEN ATOMIC CHARGES
-----------------------
   0 C :   -0.004142
   1 C :   -0.004142
   2 C :   -0.076580
   3 C :   -0.076580
   4 C :   -0.076951
   5 C :   -0.076951
   6 H :    0.077764
   7 H :    0.077764
   8 H :    0.079095
   9 H :    0.079095
  10 C :   -0.076313
  11 C :   -0.076313
  12 H :    0.076502
  13 H :    0.076502
  14 C :   -0.154359
  15 C :   -0.154359
  16 H :    0.075910
  17 H :    0.075910
  18 H :    0.079075
  19 H :    0.079075
Sum of atomic charges:   -0.0000000

LOEWDIN ATOMIC CHARGES
----------------------
   0 C :    0.003938
   1 C :    0.003938
   2 C :   -0.043833
   3 C :   -0.043833
   4 C :   -0.044090
   5 C :   -0.044090
   6 H :    0.042053
   7 H :    0.042053
   8 H :    0.043587
   9 H :    0.043587
  10 C :   -0.038965
  11 C :   -0.038965
  12 H :    0.040905
  13 H :    0.040905
  14 C :   -0.091364
  15 C :   -0.091364
  16 H :    0.042889
  17 H :    0.042889
  18 H :    0.044879
  19 H :    0.044879

  Mayer bond orders larger than 0.100000
B(  0-C ,  2-C ) :   1.3631 B(  0-C ,  5-C ) :   1.3652 B(  0-C , 11-C ) :   1.0664
B(  1-C ,  3-C ) :   1.3631 B(  1-C ,  4-C ) :   1.3652 B(  1-C , 10-C ) :   1.0664
B(  2-C ,  4-C ) :   1.4652 B(  2-C ,  6-H ) :   0.9614 B(  3-C ,  5-C ) :   1.4652
B(  3-C ,  7-H ) :   0.9614 B(  4-C ,  5-C ) :   0.1022 B(  4-C ,  8-H ) :   0.9595
B(  5-C ,  9-H ) :   0.9595 B( 10-C , 12-H ) :   0.9592 B( 10-C , 14-C ) :   1.9013
B( 11-C , 13-H ) :   0.9592 B( 11-C , 15-C ) :   1.9013 B( 14-C , 16-H ) :   0.9664
B( 14-C , 18-H ) :   0.9693 B( 15-C , 17-H ) :   0.9664 B( 15-C , 19-H ) :   0.9693

FINAL SINGLE POINT ENERGY      -382.055107118432

DIPOLE MOMENT
-------------

Method             : SCF
Type of density    : Electron Density
Multiplicity       :   1
Irrep              :   0
Energy             :  -382.0551071184321472 Eh
Relativity type    :
Basis              : AO
                                X                 Y                 Z
Electronic contribution:     -0.000000000      -0.000000000      -0.000000000
Nuclear contribution   :      0.000000000       0.000000000       0.000000000
                        -----------------------------------------
Total Dipole Moment    :     -0.000000000      -0.000000000      -0.000000000
                        -----------------------------------------
Magnitude (a.u.)       :      0.000000000
Magnitude (Debye)      :      0.000000000

Rotational constants in cm-1:             0.153923             0.022856             0.019901
Rotational constants in MHz :          4614.502067           685.206881           596.615512

CHEMICAL SHIELDING SUMMARY (ppm)
--------------------------------

  Nucleus  Element    Isotropic     Anisotropy
  -------  -------  ------------   ------------
      0       C          114.083        147.572
      1       C          114.083        147.572
      2       C          117.775        132.537
      3       C          117.775        132.537
      4       C          121.278        142.486
      5       C          121.278        142.486
     10       C          116.126        117.568
     11       C          116.126        117.568
     14       C          128.440        126.333
     15       C          128.440        126.333
      6       H           25.570          4.986
      7       H           25.570          4.986
      8       H           25.149          5.786
      9       H           25.149          5.786
     12       H           26.063          5.533
     13       H           26.063          5.533
     16       H           26.788          6.540
     17       H           26.788          6.540
     18       H           27.103          5.215
     19       H           27.103          5.215

                             ****ORCA TERMINATED NORMALLY****
TOTAL RUN TIME: 0 days 0 hours 0 minutes 29 seconds 202 msec
