                         Program Version 6.0.1  -  RELEASE   -
|  1> !  TightSCF STO-3G RIJCOSX AutoAux
|  2>
|  3> % rocis
|  4>     NRoots  5
|  5>     MaxDim  50
|  6>     DoRI    true
|  7>     SOC     true
|  8>     DoHigherMult true
|  9>     DoHigherMoments      true
| 10>     OrbWin = 0, 0, 0, 2000
| 11> end
| 12>
| 13> * xyz 1 2
| 14> 	C                  0.27867948   -1.36683162    0.00000000
| 15> 	C                  1.32303041   -0.44173575    0.00000000
| 16> 	C                  1.04434506    0.92484978    0.00000000
| 17> 	C                 -0.27867948    1.36683162    0.00000000
| 18> 	C                 -1.32303041    0.44173575    0.00000000
| 19> 	C                 -1.04434506   -0.92484978    0.00000000
| 20> 	H                  2.36595443   -0.79037726    0.00000000
| 21> 	H                  1.86746094    1.65407997    0.00000000
| 22> 	H                 -2.36595443    0.79037726    0.00000000
| 23> 	H                 -1.86746094   -1.65407997    0.00000000
| 24> 	C                 -0.58659169    2.87589931    0.00000000
| 25> 	C                  0.36350188    3.80076420    0.00000000
| 26> 	H                 -1.65647768    3.12394312    0.00000000
| 27> 	H                  0.14429560    4.87693235    0.00000000
| 28> 	H                  1.43338788    3.55272039    0.00000000
| 29> 	C                  0.58659169   -2.87589931    0.00000000
| 30> 	C                 -0.36350188   -3.80076420    0.00000000
| 31> 	H                  1.65647768   -3.12394312    0.00000000
| 32> 	H                 -0.14429560   -4.87693235    0.00000000
| 33> 	H                 -1.43338788   -3.55272039    0.00000000
| 34> *
| 35> %pal
| 36>  nprocs 4
| 37> end
| 38> %MaxCore 1500
| 39>
| 40>                          ****END OF INPUT****

CARTESIAN COORDINATES (ANGSTROEM)
---------------------------------
  C      0.278679   -1.366832    0.000000
  C      1.323030   -0.441736    0.000000
  C      1.044345    0.924850    0.000000
  C     -0.278679    1.366832    0.000000
  C     -1.323030    0.441736    0.000000
  C     -1.044345   -0.924850    0.000000
  H      2.365954   -0.790377    0.000000
  H      1.867461    1.654080    0.000000
  H     -2.365954    0.790377    0.000000
  H     -1.867461   -1.654080    0.000000
  C     -0.586592    2.875899    0.000000
  C      0.363502    3.800764    0.000000
  H     -1.656478    3.123943    0.000000
  H      0.144296    4.876932    0.000000
  H      1.433388    3.552720    0.000000
  C      0.586592   -2.875899    0.000000
  C     -0.363502   -3.800764    0.000000
  H      1.656478   -3.123943    0.000000
  H     -0.144296   -4.876932    0.000000
  H     -1.433388   -3.552720    0.000000

 Total Charge           Charge          ....    1
 Multiplicity           Mult            ....    2
 Number of Electrons    NEL             ....   69
 Basis Dimension        Dim             ....   60

ORBITAL ENERGIES
----------------
                 SPIN UP ORBITALS
  NO   OCC          E(Eh)            E(eV)
   0   1.0000     -11.310317      -307.7694
   1   1.0000     -11.310234      -307.7671
   2   1.0000     -11.289288      -307.1971
   3   1.0000     -11.289206      -307.1949
   4   1.0000     -11.244634      -305.9820
   5   1.0000     -11.244557      -305.9799
   6   1.0000     -11.218706      -305.2765
   7   1.0000     -11.218705      -305.2765
   8   1.0000     -11.215022      -305.1763
   9   1.0000     -11.215022      -305.1763
  10   1.0000      -1.344598       -36.5884
  11   1.0000      -1.246087       -33.9077
  12   1.0000      -1.176363       -32.0105
  13   1.0000      -1.172900       -31.9162
  14   1.0000      -1.135998       -30.9121
  15   1.0000      -1.013193       -27.5704
  16   1.0000      -0.985817       -26.8255
  17   1.0000      -0.908629       -24.7250
  18   1.0000      -0.906200       -24.6589
  19   1.0000      -0.827065       -22.5056
  20   1.0000      -0.812554       -22.1107
  21   1.0000      -0.786803       -21.4100
  22   1.0000      -0.763952       -20.7882
  23   1.0000      -0.736791       -20.0491
  24   1.0000      -0.735101       -20.0031
  25   1.0000      -0.711429       -19.3590
  26   1.0000      -0.702861       -19.1258
  27   1.0000      -0.682213       -18.5640
  28   1.0000      -0.645036       -17.5523
  29   1.0000      -0.629637       -17.1333
  30   1.0000      -0.610051       -16.6003
  31   1.0000      -0.602861       -16.4047
  32   1.0000      -0.532738       -14.4965
  33   1.0000      -0.511235       -13.9114
  34   1.0000      -0.476082       -12.9549
  35   0.0000      -0.043478        -1.1831
  36   0.0000       0.066673         1.8143
  37   0.0000       0.141244         3.8434
  38   0.0000       0.207800         5.6545
  39   0.0000       0.301657         8.2085

                 SPIN DOWN ORBITALS
  NO   OCC          E(Eh)            E(eV)
   0   1.0000     -11.298819      -307.4565
   1   1.0000     -11.298764      -307.4550
   2   1.0000     -11.283320      -307.0348
   3   1.0000     -11.283260      -307.0331
   4   1.0000     -11.252054      -306.1840
   5   1.0000     -11.251981      -306.1820
   6   1.0000     -11.234247      -305.6994
   7   1.0000     -11.234247      -305.6994
   8   1.0000     -11.196840      -304.6815
   9   1.0000     -11.196840      -304.6815
  10   1.0000      -1.323021       -36.0012
  11   1.0000      -1.224781       -33.3280
  12   1.0000      -1.179011       -32.0825
  13   1.0000      -1.168136       -31.7866
  14   1.0000      -1.098075       -29.8801
  15   1.0000      -0.998150       -27.1610
  16   1.0000      -0.970854       -26.4183
  17   1.0000      -0.908329       -24.7169
  18   1.0000      -0.897584       -24.4245
  19   1.0000      -0.827103       -22.5066
  20   1.0000      -0.807048       -21.9609
  21   1.0000      -0.777849       -21.1664
  22   1.0000      -0.759657       -20.6713
  23   1.0000      -0.735455       -20.0128
  24   1.0000      -0.733634       -19.9632
  25   1.0000      -0.698964       -19.0198
  26   1.0000      -0.678629       -18.4664
  27   1.0000      -0.652370       -17.7519
  28   1.0000      -0.640952       -17.4412
  29   1.0000      -0.624270       -16.9872
  30   1.0000      -0.608920       -16.5695
  31   1.0000      -0.563804       -15.3419
  32   1.0000      -0.506981       -13.7956
  33   1.0000      -0.495705       -13.4888
  34   0.0000      -0.156152        -4.2491
  35   0.0000       0.071432         1.9438
  36   0.0000       0.095315         2.5937
  37   0.0000       0.177651         4.8341
  38   0.0000       0.235379         6.4050

MULLIKEN ATOMIC CHARGES AND SPIN POPULATIONS
--------------------------------------------
   0 C :    0.092898    0.479948
   1 C :   -0.046344   -0.301376
   2 C :    0.013573    0.259030
   3 C :    0.092898    0.479948
   4 C :   -0.046344   -0.301376
   5 C :    0.013573    0.259030
   6 H :    0.116661    0.020999
   7 H :    0.127859   -0.019069
   8 H :    0.116661    0.020999
   9 H :    0.127859   -0.019069
  10 C :   -0.032487   -0.633950
  11 C :   -0.077553    0.762645
  12 H :    0.104205    0.045221
  13 H :    0.113580   -0.057611
  14 H :    0.087609   -0.055836
  15 C :   -0.032487   -0.633950
  16 C :   -0.077553    0.762645
  17 H :    0.104205    0.045221
  18 H :    0.113580   -0.057611
  19 H :    0.087609   -0.055836
Sum of atomic charges         :    1.0000000

LOEWDIN ATOMIC CHARGES AND SPIN POPULATIONS
-------------------------------------------
   0 C :    0.125248    0.434082
   1 C :   -0.023235   -0.260165
   2 C :    0.062869    0.242930
   3 C :    0.125248    0.434082
   4 C :   -0.023235   -0.260165
   5 C :    0.062869    0.242930
   6 H :    0.073027    0.015394
   7 H :    0.082316   -0.013783
   8 H :    0.073027    0.015394
   9 H :    0.082316   -0.013783
  10 C :    0.000358   -0.557289
  11 C :   -0.009363    0.688799
  12 H :    0.062869    0.033207
  13 H :    0.072538   -0.042346
  14 H :    0.053373   -0.040829
  15 C :    0.000358   -0.557289
  16 C :   -0.009363    0.688799
  17 H :    0.062869    0.033207
  18 H :    0.072538   -0.042346
  19 H :    0.053373   -0.040829

  Mayer bond orders larger than 0.100000
B(  0-C ,  1-C ) :   1.2844 B(  0-C ,  5-C ) :   1.2168 B(  0-C , 15-C ) :   1.1052
B(  1-C ,  2-C ) :   1.5418 B(  1-C ,  6-H ) :   0.9605 B(  2-C ,  3-C ) :   1.2168
B(  2-C ,  7-H ) :   0.9541 B(  3-C ,  4-C ) :   1.2844 B(  3-C , 10-C ) :   1.1052
B(  4-C ,  5-C ) :   1.5418 B(  4-C ,  8-H ) :   0.9605 B(  5-C ,  9-H ) :   0.9541
B( 10-C , 11-C ) :   1.6043 B( 10-C , 12-H ) :   0.9591 B( 11-C , 13-H ) :   0.9635
B( 11-C , 14-H ) :   0.9644 B( 15-C , 16-C ) :   1.6043 B( 15-C , 17-H ) :   0.9591
B( 16-C , 18-H ) :   0.9635 B( 16-C , 19-H ) :   0.9644

--------------------------------------------------------------------------------------------------------
      SOC CORRECTED ABSORPTION SPECTRUM VIA TRANSITION ELECTRIC DIPOLE MOMENTS
--------------------------------------------------------------------------------------------------------
      Transition         Energy     Energy  Wavelength fosc(D2)      D2       |DX|      |DY|      |DZ|
                          (eV)      (cm-1)    (nm)  (*population)  (au**2)    (au)      (au)      (au)
--------------------------------------------------------------------------------------------------------
  0-2.0A  ->  1-2.0A    0.000000       0.0     0.0   0.000000000   0.00433   0.00000   0.00000   0.06579
  1-2.0A  ->  2-2.0A   291.659506 2352392.8     4.3   0.028362855   0.00794   0.02275   0.08614   0.00000
  0-2.0A  ->  2-2.0A   291.659506 2352392.8     4.3   0.000000000   0.00000   0.00000   0.00000   0.00000
  0-2.0A  ->  3-2.0A   291.659506 2352392.8     4.3   0.000000000   0.00000   0.00000   0.00000   0.00000
  1-2.0A  ->  3-2.0A   291.659506 2352392.8     4.3   29.165007286   8.16315   0.62557   2.78780   0.00000
  0-2.0A  ->  4-4.0A   295.649085 2384570.9     4.2   0.000000000   0.00000   0.00000   0.00000   0.00000
  1-2.0A  ->  4-4.0A   295.649085 2384570.9     4.2   0.000000000   0.00000   0.00000   0.00000   0.00000
  0-2.0A  ->  5-4.0A   295.649085 2384570.9     4.2   0.000000000   0.00000   0.00000   0.00000   0.00000
  1-2.0A  ->  5-4.0A   295.649085 2384570.9     4.2   0.000000000   0.00000   0.00000   0.00000   0.00000
  0-2.0A  ->  6-4.0A   295.649085 2384570.9     4.2   0.000000000   0.00000   0.00000   0.00000   0.00000
  1-2.0A  ->  6-4.0A   295.649085 2384570.9     4.2   0.000000000   0.00000   0.00000   0.00000   0.00000
  0-2.0A  ->  7-4.0A   295.649085 2384570.9     4.2   0.000000000   0.00000   0.00000   0.00000   0.00000
  1-2.0A  ->  7-4.0A   295.649085 2384570.9     4.2   0.000000000   0.00000   0.00000   0.00000   0.00000
  1-2.0A  ->  8-2.0A   296.175028 2388813.0     4.2   0.000136505   0.00004   0.00524   0.00320   0.00000
  0-2.0A  ->  8-2.0A   296.175028 2388813.0     4.2   0.000000000   0.00000   0.00000   0.00000   0.00000
  0-2.0A  ->  9-2.0A   296.175028 2388813.0     4.2   0.000000000   0.00000   0.00000   0.00000   0.00000
  1-2.0A  ->  9-2.0A   296.175028 2388813.0     4.2   0.031249512   0.00861   0.07922   0.04834   0.00000
  1-2.0A  -> 11-2.0A   299.918101 2419002.9     4.1   0.000000000   0.00000   0.00000   0.00000   0.00000
  0-2.0A  -> 11-2.0A   299.918101 2419002.9     4.1   0.000000000   0.00000   0.00000   0.00000   0.00000
  0-2.0A  -> 10-2.0A   299.918101 2419002.9     4.1   0.000000000   0.00000   0.00000   0.00000   0.00000
  1-2.0A  -> 10-2.0A   299.918101 2419002.9     4.1   0.000000000   0.00000   0.00000   0.00000   0.00000
  0-2.0A  -> 12-4.0A   301.047655 2428113.3     4.1   0.000000000   0.00000   0.00000   0.00000   0.00000
  1-2.0A  -> 12-4.0A   301.047655 2428113.3     4.1   0.000000000   0.00000   0.00000   0.00000   0.00000
  0-2.0A  -> 13-4.0A   301.047655 2428113.3     4.1   0.000000000   0.00000   0.00000   0.00000   0.00000
  1-2.0A  -> 13-4.0A   301.047655 2428113.3     4.1   0.000000000   0.00000   0.00000   0.00000   0.00000
  0-2.0A  -> 14-4.0A   301.047655 2428113.3     4.1   0.000000000   0.00000   0.00000   0.00000   0.00000
  1-2.0A  -> 14-4.0A   301.047655 2428113.3     4.1   0.000000000   0.00000   0.00000   0.00000   0.00000
  0-2.0A  -> 15-4.0A   301.047655 2428113.3     4.1   0.000000000   0.00000   0.00000   0.00000   0.00000
  1-2.0A  -> 15-4.0A   301.047655 2428113.3     4.1   0.000000000   0.00000   0.00000   0.00000   0.00000
  1-2.0A  -> 16-2.0A   301.224102 2429536.5     4.1   0.000000000   0.00000   0.00000   0.00000   0.00000
  0-2.0A  -> 16-2.0A   301.224102 2429536.5     4.1   0.000000000   0.00000   0.00000   0.00000   0.00000
  1-2.0A  -> 17-2.0A   301.224102 2429536.5     4.1   0.000000000   0.00000   0.00000   0.00000   0.00000
  0-2.0A  -> 17-2.0A   301.224102 2429536.5     4.1   0.000000000   0.00000   0.00000   0.00000   0.00000
  1-2.0A  -> 18-4.0A   304.359661 2454826.5     4.1   0.000000000   0.00000   0.00000   0.00000   0.00000
  0-2.0A  -> 18-4.0A   304.359661 2454826.5     4.1   0.000000000   0.00000   0.00000   0.00000   0.00000
  1-2.0A  -> 19-4.0A   304.359661 2454826.5     4.1   0.000000000   0.00000   0.00000   0.00000   0.00000
  0-2.0A  -> 19-4.0A   304.359661 2454826.5     4.1   0.000000000   0.00000   0.00000   0.00000   0.00000
  1-2.0A  -> 20-4.0A   304.359661 2454826.5     4.1   0.000000000   0.00000   0.00000   0.00000   0.00000
  0-2.0A  -> 20-4.0A   304.359661 2454826.5     4.1   0.000000000   0.00000   0.00000   0.00000   0.00000
  1-2.0A  -> 21-4.0A   304.359661 2454826.5     4.1   0.000000000   0.00000   0.00000   0.00000   0.00000
  0-2.0A  -> 21-4.0A   304.359661 2454826.5     4.1   0.000000000   0.00000   0.00000   0.00000   0.00000
  1-2.0A  -> 22-4.0A   305.938451 2467560.3     4.1   0.000000000   0.00000   0.00000   0.00000   0.00000
  0-2.0A  -> 22-4.0A   305.938451 2467560.3     4.1   0.000000000   0.00000   0.00000   0.00000   0.00000
  1-2.0A  -> 23-4.0A   305.938451 2467560.3     4.1   0.000000000   0.00000   0.00000   0.00000   0.00000
  0-2.0A  -> 23-4.0A   305.938451 2467560.3     4.1   0.000000000   0.00000   0.00000   0.00000   0.00000
  1-2.0A  -> 24-4.0A   305.938451 2467560.3     4.1   0.000000000   0.00000   0.00000   0.00000   0.00000
  0-2.0A  -> 24-4.0A   305.938451 2467560.3     4.1   0.000000000   0.00000   0.00000   0.00000   0.00000
  1-2.0A  -> 25-4.0A   305.938451 2467560.3     4.1   0.000000000   0.00000   0.00000   0.00000   0.00000
  0-2.0A  -> 25-4.0A   305.938451 2467560.3     4.1   0.000000000   0.00000   0.00000   0.00000   0.00000
  1-2.0A  -> 26-4.0A   306.216832 2469805.6     4.0   0.000000000   0.00000   0.00000   0.00000   0.00000
  0-2.0A  -> 26-4.0A   306.216832 2469805.6     4.0   0.000000000   0.00000   0.00000   0.00000   0.00000
  1-2.0A  -> 27-4.0A   306.216832 2469805.6     4.0   0.000000000   0.00000   0.00000   0.00000   0.00000
  0-2.0A  -> 27-4.0A   306.216832 2469805.6     4.0   0.000000000   0.00000   0.00000   0.00000   0.00000
  0-2.0A  -> 28-4.0A   306.216832 2469805.6     4.0   0.000000000   0.00000   0.00000   0.00000   0.00000
  1-2.0A  -> 28-4.0A   306.216832 2469805.6     4.0   0.000000000   0.00000   0.00000   0.00000   0.00000
  0-2.0A  -> 29-4.0A   306.216832 2469805.6     4.0   0.000000000   0.00000   0.00000   0.00000   0.00000
  1-2.0A  -> 29-4.0A   306.216832 2469805.6     4.0   0.000000000   0.00000   0.00000   0.00000   0.00000

FINAL SINGLE POINT ENERGY      -380.892798900059

DIPOLE MOMENT
-------------

Method             : SCF
Type of density    : Electron Density
Multiplicity       :   2
Irrep              :   0
Energy             :  -379.5872414120293570 Eh
Relativity type    :
Basis              : AO
                                X                 Y                 Z
Electronic contribution:      0.000000003      -0.000000049      -0.000000001
Nuclear contribution   :      0.000000000       0.000000000       0.000000000
                        -----------------------------------------
Total Dipole Moment    :      0.000000003      -0.000000049      -0.000000001
                        -----------------------------------------
Magnitude (a.u.)       :      0.000000049
Magnitude (Debye)      :      0.000000124

Rotational constants in cm-1:             0.153862             0.023555             0.020428
Rotational constants in MHz :          4612.665232           706.155435           612.402415

                             ****ORCA TERMINATED NORMALLY****
TOTAL RUN TIME: 0 days 0 hours 0 minutes 30 seconds 501 msec
